
     Program PWSCF v.7.0 starts on 30Jul2023 at  2:28:15 

     This program is part of the open-source Quantum ESPRESSO suite
     for quantum simulation of materials; please cite
         "P. Giannozzi et al., J. Phys.:Condens. Matter 21 395502 (2009);
         "P. Giannozzi et al., J. Phys.:Condens. Matter 29 465901 (2017);
         "P. Giannozzi et al., J. Chem. Phys. 152 154105 (2020);
          URL http://www.quantum-espresso.org", 
     in publications or presentations arising from this work. More details at
     http://www.quantum-espresso.org/quote

     Parallel version (MPI), running on    80 processors

     MPI processes distributed on     4 nodes
     K-points division:     npool     =       2
     R & G space division:  proc/nbgrp/npool/nimage =      40
     248812 MiB available memory on the printing compute node when the environment starts
 
     Reading input from scf.in

     Current dimensions of program PWSCF are:
     Max number of different atomic species (ntypx) = 10
     Max number of k-points (npk) =  40000
     Max angular momentum in pseudopotentials (lmaxx) =  4
     Message from routine read_pp_mesh:
     mismatch in mesh size, discarding the one in header
     Message from routine read_pp_mesh:
     mismatch in mesh size, discarding the one in header
     Message from routine read_pp_mesh:
     mismatch in mesh size, discarding the one in header

     Subspace diagonalization in iterative solution of the eigenvalue problem:
     a serial algorithm will be used

 
     Parallelization info
     --------------------
     sticks:   dense  smooth     PW     G-vecs:    dense   smooth      PW
     Min          62      31      9                 3740     1323     199
     Max          63      32     10                 3745     1328     205
     Sum        2515    1261    361               149687    52995    8073
 
     Using Slab Decomposition
 


     bravais-lattice index     =            4
     lattice parameter (alat)  =      10.0359  a.u.
     unit-cell volume          =    1297.4095 (a.u.)^3
     number of atoms/cell      =            9
     number of atomic types    =            3
     number of electrons       =       123.00
     number of Kohn-Sham states=           74
     kinetic-energy cutoff     =      45.0000  Ry
     charge density cutoff     =     360.0000  Ry
     scf convergence threshold =      1.0E-14
     mixing beta               =       0.7000
     number of iterations used =            8  plain     mixing
     Exchange-correlation= SLA PW PBX PBC
                           (   1   4   3   4   0   0   0)

     celldm(1)=  10.035920  celldm(2)=   0.000000  celldm(3)=   1.482091
     celldm(4)=   0.000000  celldm(5)=   0.000000  celldm(6)=   0.000000

     crystal axes: (cart. coord. in units of alat)
               a(1) = (   1.000000   0.000000   0.000000 )  
               a(2) = (  -0.500000   0.866025   0.000000 )  
               a(3) = (   0.000000   0.000000   1.482091 )  

     reciprocal axes: (cart. coord. in units 2 pi/alat)
               b(1) = (  1.000000  0.577350  0.000000 )  
               b(2) = (  0.000000  1.154701  0.000000 )  
               b(3) = (  0.000000  0.000000  0.674722 )  


     PseudoPot. # 1 for Cs read from file:
     ./Cs.upf
     MD5 check sum: 541f6363487545700a1f267f58e7ad21
     Pseudo is Projector augmented-wave + core cor, Zval =  9.0
     Generated using ATOMPAW code
     Shape of augmentation charge: SINC**2
     Using radial grid of 2342 points,  6 beta functions with: 
                l(1) =   0
                l(2) =   0
                l(3) =   1
                l(4) =   1
                l(5) =   2
                l(6) =   2
     Q(r) pseudized with 0 coefficients 


     PseudoPot. # 2 for V  read from file:
     ./V.upf
     MD5 check sum: 7f2f11533c26bed1e4abef38184b9f47
     Pseudo is Projector augmented-wave + core cor, Zval = 13.0
     Generated using ATOMPAW code
     Shape of augmentation charge: BESSEL
     Using radial grid of 2342 points,  6 beta functions with: 
                l(1) =   0
                l(2) =   0
                l(3) =   1
                l(4) =   1
                l(5) =   2
                l(6) =   2
     Q(r) pseudized with 0 coefficients 


     PseudoPot. # 3 for Sb read from file:
     ./Sb.upf
     MD5 check sum: 0b06ae7fe364114d19db6fe830587df2
     Pseudo is Projector augmented-wave + core cor, Zval = 15.0
     Generated using ATOMPAW code
     Shape of augmentation charge: BESSEL
     Using radial grid of 2342 points,  6 beta functions with: 
                l(1) =   0
                l(2) =   0
                l(3) =   1
                l(4) =   1
                l(5) =   2
                l(6) =   2
     Q(r) pseudized with 0 coefficients 


     atomic species   valence    mass     pseudopotential
        Cs             9.00   132.90545     Cs( 1.00)
        V             13.00    50.94150     V ( 1.00)
        Sb            15.00   121.76000     Sb( 1.00)

     24 Sym. Ops., with inversion, found


                                    s                        frac. trans.

      isym =  1     identity                                     

 cryst.   s( 1) = (     1          0          0      )
                  (     0          1          0      )
                  (     0          0          1      )

 cart.    s( 1) = (  1.0000000  0.0000000  0.0000000 )
                  (  0.0000000  1.0000000  0.0000000 )
                  (  0.0000000  0.0000000  1.0000000 )


      isym =  2     180 deg rotation - cart. axis [0,0,1]        

 cryst.   s( 2) = (    -1          0          0      )
                  (     0         -1          0      )
                  (     0          0          1      )

 cart.    s( 2) = ( -1.0000000  0.0000000  0.0000000 )
                  (  0.0000000 -1.0000000  0.0000000 )
                  (  0.0000000  0.0000000  1.0000000 )


      isym =  3     180 deg rotation - cart. axis [0,1,0]        

 cryst.   s( 3) = (    -1          0          0      )
                  (     1          1          0      )
                  (     0          0         -1      )

 cart.    s( 3) = ( -1.0000000  0.0000000  0.0000000 )
                  (  0.0000000  1.0000000  0.0000000 )
                  (  0.0000000  0.0000000 -1.0000000 )


      isym =  4     180 deg rotation - cart. axis [1,0,0]        

 cryst.   s( 4) = (     1          0          0      )
                  (    -1         -1          0      )
                  (     0          0         -1      )

 cart.    s( 4) = (  1.0000000  0.0000000  0.0000000 )
                  (  0.0000000 -1.0000000  0.0000000 )
                  (  0.0000000  0.0000000 -1.0000000 )


      isym =  5      60 deg rotation - cryst. axis [0,0,1]       

 cryst.   s( 5) = (     1          1          0      )
                  (    -1          0          0      )
                  (     0          0          1      )

 cart.    s( 5) = (  0.5000000 -0.8660254  0.0000000 )
                  (  0.8660254  0.5000000  0.0000000 )
                  (  0.0000000  0.0000000  1.0000000 )


      isym =  6      60 deg rotation - cryst. axis [0,0,-1]      

 cryst.   s( 6) = (     0         -1          0      )
                  (     1          1          0      )
                  (     0          0          1      )

 cart.    s( 6) = (  0.5000000  0.8660254  0.0000000 )
                  ( -0.8660254  0.5000000  0.0000000 )
                  (  0.0000000  0.0000000  1.0000000 )


      isym =  7     120 deg rotation - cryst. axis [0,0,1]       

 cryst.   s( 7) = (     0          1          0      )
                  (    -1         -1          0      )
                  (     0          0          1      )

 cart.    s( 7) = ( -0.5000000 -0.8660254  0.0000000 )
                  (  0.8660254 -0.5000000  0.0000000 )
                  (  0.0000000  0.0000000  1.0000000 )


      isym =  8     120 deg rotation - cryst. axis [0,0,-1]      

 cryst.   s( 8) = (    -1         -1          0      )
                  (     1          0          0      )
                  (     0          0          1      )

 cart.    s( 8) = ( -0.5000000  0.8660254  0.0000000 )
                  ( -0.8660254 -0.5000000  0.0000000 )
                  (  0.0000000  0.0000000  1.0000000 )


      isym =  9     180 deg rotation - cryst. axis [1,-1,0]      

 cryst.   s( 9) = (     0         -1          0      )
                  (    -1          0          0      )
                  (     0          0         -1      )

 cart.    s( 9) = (  0.5000000 -0.8660254  0.0000000 )
                  ( -0.8660254 -0.5000000  0.0000000 )
                  (  0.0000000  0.0000000 -1.0000000 )


      isym = 10     180 deg rotation - cryst. axis [2,1,0]       

 cryst.   s(10) = (     1          1          0      )
                  (     0         -1          0      )
                  (     0          0         -1      )

 cart.    s(10) = (  0.5000000  0.8660254  0.0000000 )
                  (  0.8660254 -0.5000000  0.0000000 )
                  (  0.0000000  0.0000000 -1.0000000 )


      isym = 11     180 deg rotation - cryst. axis [0,1,0]       

 cryst.   s(11) = (    -1         -1          0      )
                  (     0          1          0      )
                  (     0          0         -1      )

 cart.    s(11) = ( -0.5000000 -0.8660254  0.0000000 )
                  ( -0.8660254  0.5000000  0.0000000 )
                  (  0.0000000  0.0000000 -1.0000000 )


      isym = 12     180 deg rotation - cryst. axis [1,1,0]       

 cryst.   s(12) = (     0          1          0      )
                  (     1          0          0      )
                  (     0          0         -1      )

 cart.    s(12) = ( -0.5000000  0.8660254  0.0000000 )
                  (  0.8660254  0.5000000  0.0000000 )
                  (  0.0000000  0.0000000 -1.0000000 )


      isym = 13     inversion                                    

 cryst.   s(13) = (    -1          0          0      )
                  (     0         -1          0      )
                  (     0          0         -1      )

 cart.    s(13) = ( -1.0000000  0.0000000  0.0000000 )
                  (  0.0000000 -1.0000000  0.0000000 )
                  (  0.0000000  0.0000000 -1.0000000 )


      isym = 14     inv. 180 deg rotation - cart. axis [0,0,1]   

 cryst.   s(14) = (     1          0          0      )
                  (     0          1          0      )
                  (     0          0         -1      )

 cart.    s(14) = (  1.0000000  0.0000000  0.0000000 )
                  (  0.0000000  1.0000000  0.0000000 )
                  (  0.0000000  0.0000000 -1.0000000 )


      isym = 15     inv. 180 deg rotation - cart. axis [0,1,0]   

 cryst.   s(15) = (     1          0          0      )
                  (    -1         -1          0      )
                  (     0          0          1      )

 cart.    s(15) = (  1.0000000  0.0000000  0.0000000 )
                  (  0.0000000 -1.0000000  0.0000000 )
                  (  0.0000000  0.0000000  1.0000000 )


      isym = 16     inv. 180 deg rotation - cart. axis [1,0,0]   

 cryst.   s(16) = (    -1          0          0      )
                  (     1          1          0      )
                  (     0          0          1      )

 cart.    s(16) = ( -1.0000000  0.0000000  0.0000000 )
                  (  0.0000000  1.0000000  0.0000000 )
                  (  0.0000000  0.0000000  1.0000000 )


      isym = 17     inv.  60 deg rotation - cryst. axis [0,0,1]  

 cryst.   s(17) = (    -1         -1          0      )
                  (     1          0          0      )
                  (     0          0         -1      )

 cart.    s(17) = ( -0.5000000  0.8660254  0.0000000 )
                  ( -0.8660254 -0.5000000  0.0000000 )
                  (  0.0000000  0.0000000 -1.0000000 )


      isym = 18     inv.  60 deg rotation - cryst. axis [0,0,-1] 

 cryst.   s(18) = (     0          1          0      )
                  (    -1         -1          0      )
                  (     0          0         -1      )

 cart.    s(18) = ( -0.5000000 -0.8660254  0.0000000 )
                  (  0.8660254 -0.5000000  0.0000000 )
                  (  0.0000000  0.0000000 -1.0000000 )


      isym = 19     inv. 120 deg rotation - cryst. axis [0,0,1]  

 cryst.   s(19) = (     0         -1          0      )
                  (     1          1          0      )
                  (     0          0         -1      )

 cart.    s(19) = (  0.5000000  0.8660254  0.0000000 )
                  ( -0.8660254  0.5000000  0.0000000 )
                  (  0.0000000  0.0000000 -1.0000000 )


      isym = 20     inv. 120 deg rotation - cryst. axis [0,0,-1] 

 cryst.   s(20) = (     1          1          0      )
                  (    -1          0          0      )
                  (     0          0         -1      )

 cart.    s(20) = (  0.5000000 -0.8660254  0.0000000 )
                  (  0.8660254  0.5000000  0.0000000 )
                  (  0.0000000  0.0000000 -1.0000000 )


      isym = 21     inv. 180 deg rotation - cryst. axis [1,-1,0] 

 cryst.   s(21) = (     0          1          0      )
                  (     1          0          0      )
                  (     0          0          1      )

 cart.    s(21) = ( -0.5000000  0.8660254  0.0000000 )
                  (  0.8660254  0.5000000  0.0000000 )
                  (  0.0000000  0.0000000  1.0000000 )


      isym = 22     inv. 180 deg rotation - cryst. axis [2,1,0]  

 cryst.   s(22) = (    -1         -1          0      )
                  (     0          1          0      )
                  (     0          0          1      )

 cart.    s(22) = ( -0.5000000 -0.8660254  0.0000000 )
                  ( -0.8660254  0.5000000  0.0000000 )
                  (  0.0000000  0.0000000  1.0000000 )


      isym = 23     inv. 180 deg rotation - cryst. axis [0,1,0]  

 cryst.   s(23) = (     1          1          0      )
                  (     0         -1          0      )
                  (     0          0          1      )

 cart.    s(23) = (  0.5000000  0.8660254  0.0000000 )
                  (  0.8660254 -0.5000000  0.0000000 )
                  (  0.0000000  0.0000000  1.0000000 )


      isym = 24     inv. 180 deg rotation - cryst. axis [1,1,0]  

 cryst.   s(24) = (     0         -1          0      )
                  (    -1          0          0      )
                  (     0          0          1      )

 cart.    s(24) = (  0.5000000 -0.8660254  0.0000000 )
                  ( -0.8660254 -0.5000000  0.0000000 )
                  (  0.0000000  0.0000000  1.0000000 )


     point group D_6h(6/mmm)
     there are 12 classes
     the character table:

       E     2C6   2C3   C2    3C2'  3C2'' i     2S3   2S6   s_h   3s_d  3s_v 
A_1g   1.00  1.00  1.00  1.00  1.00  1.00  1.00  1.00  1.00  1.00  1.00  1.00
A_2g   1.00  1.00  1.00  1.00 -1.00 -1.00  1.00  1.00  1.00  1.00 -1.00 -1.00
B_1g   1.00 -1.00  1.00 -1.00  1.00 -1.00  1.00 -1.00  1.00 -1.00  1.00 -1.00
B_2g   1.00 -1.00  1.00 -1.00 -1.00  1.00  1.00 -1.00  1.00 -1.00 -1.00  1.00
E_1g   2.00  1.00 -1.00 -2.00  0.00  0.00  2.00  1.00 -1.00 -2.00  0.00  0.00
E_2g   2.00 -1.00 -1.00  2.00  0.00  0.00  2.00 -1.00 -1.00  2.00  0.00  0.00
A_1u   1.00  1.00  1.00  1.00  1.00  1.00 -1.00 -1.00 -1.00 -1.00 -1.00 -1.00
A_2u   1.00  1.00  1.00  1.00 -1.00 -1.00 -1.00 -1.00 -1.00 -1.00  1.00  1.00
B_1u   1.00 -1.00  1.00 -1.00  1.00 -1.00 -1.00  1.00 -1.00  1.00 -1.00  1.00
B_2u   1.00 -1.00  1.00 -1.00 -1.00  1.00 -1.00  1.00 -1.00  1.00  1.00 -1.00
E_1u   2.00  1.00 -1.00 -2.00  0.00  0.00 -2.00 -1.00  1.00  2.00  0.00  0.00
E_2u   2.00 -1.00 -1.00  2.00  0.00  0.00 -2.00  1.00  1.00 -2.00  0.00  0.00

     the symmetry operations in each class and the name of the first element:

     E        1
          identity                                               
     2C6      5    6
           60 deg rotation - cryst. axis [0,0,1]                 
     2C3      7    8
          120 deg rotation - cryst. axis [0,0,1]                 
     C2       2
          180 deg rotation - cart. axis [0,0,1]                  
     3C2'     4   12   11
          180 deg rotation - cart. axis [1,0,0]                  
     3C2''    3    9   10
          180 deg rotation - cart. axis [0,1,0]                  
     i       13
          inversion                                              
     2S3     17   18
          inv.  60 deg rotation - cryst. axis [0,0,1]            
     2S6     19   20
          inv. 120 deg rotation - cryst. axis [0,0,1]            
     s_h     14
          inv. 180 deg rotation - cart. axis [0,0,1]             
     3s_d    16   24   23
          inv. 180 deg rotation - cart. axis [1,0,0]             
     3s_v    15   21   22
          inv. 180 deg rotation - cart. axis [0,1,0]             

   Cartesian axes

     site n.     atom                  positions (alat units)
         1           Cs  tau(   1) = (   0.0000000   0.0000000   0.0000000  )
         2           V   tau(   2) = (   0.2499999   0.4330126   0.7410455  )
         3           V   tau(   3) = (   0.4999998   0.0000000   0.7410455  )
         4           V   tau(   4) = (  -0.2499999   0.4330125   0.7410455  )
         5           Sb  tau(   5) = (   0.0000000   0.0000000   0.7410455  )
         6           Sb  tau(   6) = (   0.4999999   0.2886750   1.1557120  )
         7           Sb  tau(   7) = (  -0.0000001   0.5773501   0.3263789  )
         8           Sb  tau(   8) = (  -0.0000001   0.5773501   1.1557120  )
         9           Sb  tau(   9) = (   0.4999999   0.2886750   0.3263789  )

   Crystallographic axes

     site n.     atom                  positions (cryst. coord.)
         1           Cs  tau(   1) = (  0.0000000  0.0000000  0.0000000  )
         2           V   tau(   2) = (  0.4999998  0.4999998  0.4999999  )
         3           V   tau(   3) = (  0.4999998  0.0000000  0.4999999  )
         4           V   tau(   4) = (  0.0000000  0.4999998  0.4999999  )
         5           Sb  tau(   5) = (  0.0000000  0.0000000  0.4999999  )
         6           Sb  tau(   6) = (  0.6666665  0.3333332  0.7797847  )
         7           Sb  tau(   7) = (  0.3333332  0.6666665  0.2202151  )
         8           Sb  tau(   8) = (  0.3333332  0.6666665  0.7797847  )
         9           Sb  tau(   9) = (  0.6666665  0.3333332  0.2202151  )

     number of k points=    50  Gaussian smearing, width (Ry)=  0.0200
                       cart. coord. in units 2pi/alat
        k(    1) = (   0.0000000   0.0000000   0.0000000), wk =   0.0039062
        k(    2) = (   0.0000000   0.0000000   0.0843403), wk =   0.0078125
        k(    3) = (   0.0000000   0.0000000   0.1686806), wk =   0.0078125
        k(    4) = (   0.0000000   0.0000000   0.2530209), wk =   0.0078125
        k(    5) = (   0.0000000   0.0000000  -0.3373612), wk =   0.0039062
        k(    6) = (   0.0000000   0.1443376   0.0000000), wk =   0.0234375
        k(    7) = (   0.0000000   0.1443376   0.0843403), wk =   0.0468750
        k(    8) = (   0.0000000   0.1443376   0.1686806), wk =   0.0468750
        k(    9) = (   0.0000000   0.1443376   0.2530209), wk =   0.0468750
        k(   10) = (   0.0000000   0.1443376  -0.3373612), wk =   0.0234375
        k(   11) = (   0.0000000   0.2886751   0.0000000), wk =   0.0234375
        k(   12) = (   0.0000000   0.2886751   0.0843403), wk =   0.0468750
        k(   13) = (   0.0000000   0.2886751   0.1686806), wk =   0.0468750
        k(   14) = (   0.0000000   0.2886751   0.2530209), wk =   0.0468750
        k(   15) = (   0.0000000   0.2886751  -0.3373612), wk =   0.0234375
        k(   16) = (   0.0000000   0.4330127   0.0000000), wk =   0.0234375
        k(   17) = (   0.0000000   0.4330127   0.0843403), wk =   0.0468750
        k(   18) = (   0.0000000   0.4330127   0.1686806), wk =   0.0468750
        k(   19) = (   0.0000000   0.4330127   0.2530209), wk =   0.0468750
        k(   20) = (   0.0000000   0.4330127  -0.3373612), wk =   0.0234375
        k(   21) = (   0.0000000  -0.5773503   0.0000000), wk =   0.0117188
        k(   22) = (   0.0000000  -0.5773503   0.0843403), wk =   0.0234375
        k(   23) = (   0.0000000  -0.5773503   0.1686806), wk =   0.0234375
        k(   24) = (   0.0000000  -0.5773503   0.2530209), wk =   0.0234375
        k(   25) = (   0.0000000  -0.5773503  -0.3373612), wk =   0.0117188
        k(   26) = (   0.1250000   0.2165064   0.0000000), wk =   0.0234375
        k(   27) = (   0.1250000   0.2165064   0.0843403), wk =   0.0468750
        k(   28) = (   0.1250000   0.2165064   0.1686806), wk =   0.0468750
        k(   29) = (   0.1250000   0.2165064   0.2530209), wk =   0.0468750
        k(   30) = (   0.1250000   0.2165064  -0.3373612), wk =   0.0234375
        k(   31) = (   0.1250000   0.3608439   0.0000000), wk =   0.0468750
        k(   32) = (   0.1250000   0.3608439   0.0843403), wk =   0.0937500
        k(   33) = (   0.1250000   0.3608439   0.1686806), wk =   0.0937500
        k(   34) = (   0.1250000   0.3608439   0.2530209), wk =   0.0937500
        k(   35) = (   0.1250000   0.3608439  -0.3373612), wk =   0.0468750
        k(   36) = (   0.1250000   0.5051815   0.0000000), wk =   0.0468750
        k(   37) = (   0.1250000   0.5051815   0.0843403), wk =   0.0937500
        k(   38) = (   0.1250000   0.5051815   0.1686806), wk =   0.0937500
        k(   39) = (   0.1250000   0.5051815   0.2530209), wk =   0.0937500
        k(   40) = (   0.1250000   0.5051815  -0.3373612), wk =   0.0468750
        k(   41) = (   0.2500000   0.4330127   0.0000000), wk =   0.0234375
        k(   42) = (   0.2500000   0.4330127   0.0843403), wk =   0.0468750
        k(   43) = (   0.2500000   0.4330127   0.1686806), wk =   0.0468750
        k(   44) = (   0.2500000   0.4330127   0.2530209), wk =   0.0468750
        k(   45) = (   0.2500000   0.4330127  -0.3373612), wk =   0.0234375
        k(   46) = (   0.2500000   0.5773503   0.0000000), wk =   0.0234375
        k(   47) = (   0.2500000   0.5773503   0.0843403), wk =   0.0468750
        k(   48) = (   0.2500000   0.5773503   0.1686806), wk =   0.0468750
        k(   49) = (   0.2500000   0.5773503   0.2530209), wk =   0.0468750
        k(   50) = (   0.2500000   0.5773503  -0.3373612), wk =   0.0234375

                       cryst. coord.
        k(    1) = (   0.0000000   0.0000000   0.0000000), wk =   0.0039062
        k(    2) = (   0.0000000   0.0000000   0.1250000), wk =   0.0078125
        k(    3) = (   0.0000000   0.0000000   0.2500000), wk =   0.0078125
        k(    4) = (   0.0000000   0.0000000   0.3750000), wk =   0.0078125
        k(    5) = (   0.0000000   0.0000000  -0.5000000), wk =   0.0039062
        k(    6) = (   0.0000000   0.1250000   0.0000000), wk =   0.0234375
        k(    7) = (   0.0000000   0.1250000   0.1250000), wk =   0.0468750
        k(    8) = (   0.0000000   0.1250000   0.2500000), wk =   0.0468750
        k(    9) = (   0.0000000   0.1250000   0.3750000), wk =   0.0468750
        k(   10) = (   0.0000000   0.1250000  -0.5000000), wk =   0.0234375
        k(   11) = (   0.0000000   0.2500000   0.0000000), wk =   0.0234375
        k(   12) = (   0.0000000   0.2500000   0.1250000), wk =   0.0468750
        k(   13) = (   0.0000000   0.2500000   0.2500000), wk =   0.0468750
        k(   14) = (   0.0000000   0.2500000   0.3750000), wk =   0.0468750
        k(   15) = (   0.0000000   0.2500000  -0.5000000), wk =   0.0234375
        k(   16) = (   0.0000000   0.3750000   0.0000000), wk =   0.0234375
        k(   17) = (   0.0000000   0.3750000   0.1250000), wk =   0.0468750
        k(   18) = (   0.0000000   0.3750000   0.2500000), wk =   0.0468750
        k(   19) = (   0.0000000   0.3750000   0.3750000), wk =   0.0468750
        k(   20) = (   0.0000000   0.3750000  -0.5000000), wk =   0.0234375
        k(   21) = (   0.0000000  -0.5000000   0.0000000), wk =   0.0117188
        k(   22) = (   0.0000000  -0.5000000   0.1250000), wk =   0.0234375
        k(   23) = (   0.0000000  -0.5000000   0.2500000), wk =   0.0234375
        k(   24) = (   0.0000000  -0.5000000   0.3750000), wk =   0.0234375
        k(   25) = (   0.0000000  -0.5000000  -0.5000000), wk =   0.0117188
        k(   26) = (   0.1250000   0.1250000   0.0000000), wk =   0.0234375
        k(   27) = (   0.1250000   0.1250000   0.1250000), wk =   0.0468750
        k(   28) = (   0.1250000   0.1250000   0.2500000), wk =   0.0468750
        k(   29) = (   0.1250000   0.1250000   0.3750000), wk =   0.0468750
        k(   30) = (   0.1250000   0.1250000  -0.5000000), wk =   0.0234375
        k(   31) = (   0.1250000   0.2500000   0.0000000), wk =   0.0468750
        k(   32) = (   0.1250000   0.2500000   0.1250000), wk =   0.0937500
        k(   33) = (   0.1250000   0.2500000   0.2500000), wk =   0.0937500
        k(   34) = (   0.1250000   0.2500000   0.3750000), wk =   0.0937500
        k(   35) = (   0.1250000   0.2500000  -0.5000000), wk =   0.0468750
        k(   36) = (   0.1250000   0.3750000   0.0000000), wk =   0.0468750
        k(   37) = (   0.1250000   0.3750000   0.1250000), wk =   0.0937500
        k(   38) = (   0.1250000   0.3750000   0.2500000), wk =   0.0937500
        k(   39) = (   0.1250000   0.3750000   0.3750000), wk =   0.0937500
        k(   40) = (   0.1250000   0.3750000  -0.5000000), wk =   0.0468750
        k(   41) = (   0.2500000   0.2500000   0.0000000), wk =   0.0234375
        k(   42) = (   0.2500000   0.2500000   0.1250000), wk =   0.0468750
        k(   43) = (   0.2500000   0.2500000   0.2500000), wk =   0.0468750
        k(   44) = (   0.2500000   0.2500000   0.3750000), wk =   0.0468750
        k(   45) = (   0.2500000   0.2500000  -0.5000000), wk =   0.0234375
        k(   46) = (   0.2500000   0.3750000   0.0000000), wk =   0.0234375
        k(   47) = (   0.2500000   0.3750000   0.1250000), wk =   0.0468750
        k(   48) = (   0.2500000   0.3750000   0.2500000), wk =   0.0468750
        k(   49) = (   0.2500000   0.3750000   0.3750000), wk =   0.0468750
        k(   50) = (   0.2500000   0.3750000  -0.5000000), wk =   0.0234375

     Dense  grid:   149687 G-vectors     FFT dimensions: (  64,  64,  90)

     Smooth grid:    52995 G-vectors     FFT dimensions: (  45,  45,  64)

     Dynamical RAM for                 wfc:       0.19 MB

     Dynamical RAM for     wfc (w. buffer):       4.84 MB

     Dynamical RAM for           str. fact:       0.17 MB

     Dynamical RAM for           local pot:       0.00 MB

     Dynamical RAM for          nlocal pot:       0.41 MB

     Dynamical RAM for                qrad:       4.57 MB

     Dynamical RAM for          rho,v,vnew:       0.45 MB

     Dynamical RAM for               rhoin:       0.15 MB

     Dynamical RAM for            rho*nmix:       0.91 MB

     Dynamical RAM for           G-vectors:       0.22 MB

     Dynamical RAM for          h,s,v(r/c):       1.00 MB

     Dynamical RAM for          <psi|beta>:       0.18 MB

     Dynamical RAM for                 psi:       0.37 MB

     Dynamical RAM for                hpsi:       0.37 MB

     Dynamical RAM for                spsi:       0.37 MB

     Dynamical RAM for      wfcinit/wfcrot:       1.42 MB

     Dynamical RAM for           addusdens:       5.48 MB

     Dynamical RAM for          addusforce:       5.73 MB

     Dynamical RAM for         addusstress:       5.76 MB

     Estimated static dynamical RAM per process >      11.52 MB

     Estimated max dynamical RAM per process >      18.19 MB

     Estimated total dynamical RAM >       1.39 GB

     Check: negative core charge=   -0.000003

     Initial potential from superposition of free atoms

     starting charge     122.9551, renormalised to     123.0000
     Starting wfcs are  162 randomized atomic wfcs
     Checking if some PAW data can be deallocated... 
       PAW data deallocated on   71 nodes for type:  1
       PAW data deallocated on   53 nodes for type:  2
       PAW data deallocated on   36 nodes for type:  3

     total cpu time spent up to now is       20.1 secs

     Self-consistent Calculation

     iteration #  1     ecut=    45.00 Ry     beta= 0.70
     Davidson diagonalization with overlap

---- Real-time Memory Report at c_bands before calling an iterative solver
           158 MiB given to the printing process from OS
             0 MiB allocation reported by mallinfo(arena+hblkhd)
        247551 MiB available memory on the node where the printing process lives
------------------
     ethr =  1.00E-02,  avg # of iterations =  2.0

     total cpu time spent up to now is       38.5 secs

     total energy              =   -3434.17312289 Ry
     estimated scf accuracy    <       3.79682942 Ry

     iteration #  2     ecut=    45.00 Ry     beta= 0.70
     Davidson diagonalization with overlap

---- Real-time Memory Report at c_bands before calling an iterative solver
           188 MiB given to the printing process from OS
             0 MiB allocation reported by mallinfo(arena+hblkhd)
        247334 MiB available memory on the node where the printing process lives
------------------
     ethr =  3.09E-03,  avg # of iterations =  9.2

     total cpu time spent up to now is       72.3 secs

     total energy              =   -3430.00982876 Ry
     estimated scf accuracy    <      94.02915344 Ry

     iteration #  3     ecut=    45.00 Ry     beta= 0.70
     Davidson diagonalization with overlap

---- Real-time Memory Report at c_bands before calling an iterative solver
           207 MiB given to the printing process from OS
             0 MiB allocation reported by mallinfo(arena+hblkhd)
        247302 MiB available memory on the node where the printing process lives
------------------
     ethr =  3.09E-03,  avg # of iterations =  8.3

     total cpu time spent up to now is      101.9 secs

     total energy              =   -3436.88846633 Ry
     estimated scf accuracy    <       2.47114773 Ry

     iteration #  4     ecut=    45.00 Ry     beta= 0.70
     Davidson diagonalization with overlap

---- Real-time Memory Report at c_bands before calling an iterative solver
           212 MiB given to the printing process from OS
             0 MiB allocation reported by mallinfo(arena+hblkhd)
        247303 MiB available memory on the node where the printing process lives
------------------
     ethr =  2.01E-03,  avg # of iterations =  2.9

     total cpu time spent up to now is      120.9 secs

     total energy              =   -3436.97550894 Ry
     estimated scf accuracy    <       0.24545865 Ry

     iteration #  5     ecut=    45.00 Ry     beta= 0.70
     Davidson diagonalization with overlap

---- Real-time Memory Report at c_bands before calling an iterative solver
           215 MiB given to the printing process from OS
             0 MiB allocation reported by mallinfo(arena+hblkhd)
        247303 MiB available memory on the node where the printing process lives
------------------
     ethr =  2.00E-04,  avg # of iterations =  8.1

     total cpu time spent up to now is      148.0 secs

     total energy              =   -3437.04777975 Ry
     estimated scf accuracy    <       0.07186038 Ry

     iteration #  6     ecut=    45.00 Ry     beta= 0.70
     Davidson diagonalization with overlap

---- Real-time Memory Report at c_bands before calling an iterative solver
           215 MiB given to the printing process from OS
             0 MiB allocation reported by mallinfo(arena+hblkhd)
        247302 MiB available memory on the node where the printing process lives
------------------
     ethr =  5.84E-05,  avg # of iterations =  3.2

     total cpu time spent up to now is      167.9 secs

     total energy              =   -3437.06084781 Ry
     estimated scf accuracy    <       0.01127797 Ry

     iteration #  7     ecut=    45.00 Ry     beta= 0.70
     Davidson diagonalization with overlap

---- Real-time Memory Report at c_bands before calling an iterative solver
           217 MiB given to the printing process from OS
             0 MiB allocation reported by mallinfo(arena+hblkhd)
        247302 MiB available memory on the node where the printing process lives
------------------
     ethr =  9.17E-06,  avg # of iterations =  5.0

     total cpu time spent up to now is      187.4 secs

     total energy              =   -3437.06061304 Ry
     estimated scf accuracy    <       0.00239836 Ry

     iteration #  8     ecut=    45.00 Ry     beta= 0.70
     Davidson diagonalization with overlap

---- Real-time Memory Report at c_bands before calling an iterative solver
           218 MiB given to the printing process from OS
             0 MiB allocation reported by mallinfo(arena+hblkhd)
        247301 MiB available memory on the node where the printing process lives
------------------
     ethr =  1.95E-06,  avg # of iterations =  6.1

     total cpu time spent up to now is      209.7 secs

     total energy              =   -3437.06111279 Ry
     estimated scf accuracy    <       0.00021453 Ry

     iteration #  9     ecut=    45.00 Ry     beta= 0.70
     Davidson diagonalization with overlap

---- Real-time Memory Report at c_bands before calling an iterative solver
           219 MiB given to the printing process from OS
             0 MiB allocation reported by mallinfo(arena+hblkhd)
        247300 MiB available memory on the node where the printing process lives
------------------
     ethr =  1.74E-07,  avg # of iterations =  2.8

     total cpu time spent up to now is      229.4 secs

     total energy              =   -3437.06114719 Ry
     estimated scf accuracy    <       0.00000169 Ry

     iteration # 10     ecut=    45.00 Ry     beta= 0.70
     Davidson diagonalization with overlap

---- Real-time Memory Report at c_bands before calling an iterative solver
           220 MiB given to the printing process from OS
             0 MiB allocation reported by mallinfo(arena+hblkhd)
        247300 MiB available memory on the node where the printing process lives
------------------
     ethr =  1.37E-09,  avg # of iterations =  5.5

     total cpu time spent up to now is      260.6 secs

     total energy              =   -3437.06114936 Ry
     estimated scf accuracy    <       0.00000047 Ry

     iteration # 11     ecut=    45.00 Ry     beta= 0.70
     Davidson diagonalization with overlap

---- Real-time Memory Report at c_bands before calling an iterative solver
           220 MiB given to the printing process from OS
             0 MiB allocation reported by mallinfo(arena+hblkhd)
        247298 MiB available memory on the node where the printing process lives
------------------
     ethr =  3.79E-10,  avg # of iterations =  3.5

     total cpu time spent up to now is      281.0 secs

     total energy              =   -3437.06114939 Ry
     estimated scf accuracy    <       0.00000013 Ry

     iteration # 12     ecut=    45.00 Ry     beta= 0.70
     Davidson diagonalization with overlap

---- Real-time Memory Report at c_bands before calling an iterative solver
           221 MiB given to the printing process from OS
             0 MiB allocation reported by mallinfo(arena+hblkhd)
        247298 MiB available memory on the node where the printing process lives
------------------
     ethr =  1.02E-10,  avg # of iterations =  3.1

     total cpu time spent up to now is      302.2 secs

     total energy              =   -3437.06114942 Ry
     estimated scf accuracy    <          2.4E-09 Ry

     iteration # 13     ecut=    45.00 Ry     beta= 0.70
     Davidson diagonalization with overlap

---- Real-time Memory Report at c_bands before calling an iterative solver
           221 MiB given to the printing process from OS
             0 MiB allocation reported by mallinfo(arena+hblkhd)
        247299 MiB available memory on the node where the printing process lives
------------------
     ethr =  1.98E-12,  avg # of iterations =  5.6

     total cpu time spent up to now is      331.0 secs

     total energy              =   -3437.06114942 Ry
     estimated scf accuracy    <          2.6E-09 Ry

     iteration # 14     ecut=    45.00 Ry     beta= 0.70
     Davidson diagonalization with overlap

---- Real-time Memory Report at c_bands before calling an iterative solver
           222 MiB given to the printing process from OS
             0 MiB allocation reported by mallinfo(arena+hblkhd)
        247299 MiB available memory on the node where the printing process lives
------------------
     ethr =  1.98E-12,  avg # of iterations =  3.9

     total cpu time spent up to now is      352.3 secs

     total energy              =   -3437.06114942 Ry
     estimated scf accuracy    <          9.9E-11 Ry

     iteration # 15     ecut=    45.00 Ry     beta= 0.70
     Davidson diagonalization with overlap

---- Real-time Memory Report at c_bands before calling an iterative solver
           222 MiB given to the printing process from OS
             0 MiB allocation reported by mallinfo(arena+hblkhd)
        247299 MiB available memory on the node where the printing process lives
------------------
     ethr =  1.00E-13,  avg # of iterations =  4.1

     total cpu time spent up to now is      374.3 secs

     total energy              =   -3437.06114942 Ry
     estimated scf accuracy    <          7.2E-12 Ry

     iteration # 16     ecut=    45.00 Ry     beta= 0.70
     Davidson diagonalization with overlap

---- Real-time Memory Report at c_bands before calling an iterative solver
           222 MiB given to the printing process from OS
             0 MiB allocation reported by mallinfo(arena+hblkhd)
        247299 MiB available memory on the node where the printing process lives
------------------
     ethr =  1.00E-13,  avg # of iterations =  1.0

     total cpu time spent up to now is      391.8 secs

     total energy              =   -3437.06114942 Ry
     estimated scf accuracy    <          1.5E-12 Ry

     iteration # 17     ecut=    45.00 Ry     beta= 0.70
     Davidson diagonalization with overlap

---- Real-time Memory Report at c_bands before calling an iterative solver
           222 MiB given to the printing process from OS
             0 MiB allocation reported by mallinfo(arena+hblkhd)
        247299 MiB available memory on the node where the printing process lives
------------------
     ethr =  1.00E-13,  avg # of iterations =  1.0

     total cpu time spent up to now is      409.5 secs

     total energy              =   -3437.06114942 Ry
     estimated scf accuracy    <          2.5E-13 Ry

     iteration # 18     ecut=    45.00 Ry     beta= 0.70
     Davidson diagonalization with overlap

---- Real-time Memory Report at c_bands before calling an iterative solver
           222 MiB given to the printing process from OS
             0 MiB allocation reported by mallinfo(arena+hblkhd)
        247298 MiB available memory on the node where the printing process lives
------------------
     ethr =  1.00E-13,  avg # of iterations =  1.0

     total cpu time spent up to now is      427.1 secs

     total energy              =   -3437.06114942 Ry
     estimated scf accuracy    <          1.3E-14 Ry

     iteration # 19     ecut=    45.00 Ry     beta= 0.70
     Davidson diagonalization with overlap

---- Real-time Memory Report at c_bands before calling an iterative solver
           222 MiB given to the printing process from OS
             0 MiB allocation reported by mallinfo(arena+hblkhd)
        247299 MiB available memory on the node where the printing process lives
------------------
     ethr =  1.00E-13,  avg # of iterations =  1.0

     total cpu time spent up to now is      444.6 secs

     End of self-consistent calculation

          k = 0.0000 0.0000 0.0000 (  6655 PWs)   bands (ev):

   -49.9825 -49.8824 -49.8823 -24.0785 -24.0025 -23.9816 -23.9816 -23.9067
   -23.9067 -23.6593 -23.4157 -23.4157 -15.1034 -15.0248 -15.0248 -14.9499
   -14.9499 -14.8595 -14.8595 -14.8562 -14.8562 -14.7955 -14.7955 -14.7945
   -14.7945 -14.7546 -14.7546 -14.7413 -14.7379 -14.7379 -14.7108 -14.7089
   -14.7089 -14.7062 -14.7062 -14.6574 -14.6376  -8.2413   1.8489   2.6557
     4.1904   4.6876   4.6876   5.4211   6.6456   6.6501   8.7851   9.5672
     9.5672  10.9944  10.9944  11.1309  11.1310  11.7272  11.7272  11.8074
    11.9025  12.3811  12.3983  12.3983  12.7454  14.6176  14.8824  14.8824
    15.3197  15.3790  15.3790  15.4316  15.4316  15.6230  15.6230  15.9765
    16.1244  16.1244

     occupation numbers 
     1.0000   1.0000   1.0000   1.0000   1.0000   1.0000   1.0000   1.0000
     1.0000   1.0000   1.0000   1.0000   1.0000   1.0000   1.0000   1.0000
     1.0000   1.0000   1.0000   1.0000   1.0000   1.0000   1.0000   1.0000
     1.0000   1.0000   1.0000   1.0000   1.0000   1.0000   1.0000   1.0000
     1.0000   1.0000   1.0000   1.0000   1.0000   1.0000   1.0000   1.0000
     1.0000   1.0000   1.0000   1.0000   1.0000   1.0000   1.0000   1.0000
     1.0000   1.0000   1.0000   1.0000   1.0000   1.0000   1.0000   1.0000
     1.0000   1.0000   1.0000   1.0000   1.0000   0.0824   0.0028   0.0028
     0.0000   0.0000   0.0000   0.0000   0.0000   0.0000   0.0000   0.0000
     0.0000   0.0000

          k = 0.0000 0.0000 0.0843 (  6638 PWs)   bands (ev):

   -49.9825 -49.8824 -49.8823 -24.0785 -24.0025 -23.9816 -23.9816 -23.9067
   -23.9067 -23.6593 -23.4157 -23.4157 -15.1034 -15.0248 -15.0248 -14.9499
   -14.9499 -14.8595 -14.8595 -14.8563 -14.8563 -14.7955 -14.7955 -14.7945
   -14.7945 -14.7539 -14.7539 -14.7406 -14.7385 -14.7385 -14.7115 -14.7100
   -14.7100 -14.7052 -14.7052 -14.6586 -14.6364  -8.2413   1.8429   2.6576
     4.2093   4.6877   4.6877   5.3946   6.4795   6.8384   8.8730   9.6031
     9.6031  10.9075  10.9075  11.1029  11.1029  11.3969  11.7687  11.7687
    11.9705  12.2485  12.4158  12.4158  13.2086  14.4308  14.9832  14.9832
    15.3197  15.3416  15.3416  15.4549  15.4549  15.5378  15.5378  16.0503
    16.2523  16.2523

     occupation numbers 
     1.0000   1.0000   1.0000   1.0000   1.0000   1.0000   1.0000   1.0000
     1.0000   1.0000   1.0000   1.0000   1.0000   1.0000   1.0000   1.0000
     1.0000   1.0000   1.0000   1.0000   1.0000   1.0000   1.0000   1.0000
     1.0000   1.0000   1.0000   1.0000   1.0000   1.0000   1.0000   1.0000
     1.0000   1.0000   1.0000   1.0000   1.0000   1.0000   1.0000   1.0000
     1.0000   1.0000   1.0000   1.0000   1.0000   1.0000   1.0000   1.0000
     1.0000   1.0000   1.0000   1.0000   1.0000   1.0000   1.0000   1.0000
     1.0000   1.0000   1.0000   1.0000   1.0000   0.3377   0.0005   0.0005
     0.0000   0.0000   0.0000   0.0000   0.0000   0.0000   0.0000   0.0000
     0.0000   0.0000

          k = 0.0000 0.0000 0.1687 (  6596 PWs)   bands (ev):

   -49.9825 -49.8824 -49.8823 -24.0785 -24.0025 -23.9816 -23.9816 -23.9067
   -23.9067 -23.6593 -23.4157 -23.4157 -15.1034 -15.0248 -15.0248 -14.9499
   -14.9499 -14.8592 -14.8592 -14.8565 -14.8565 -14.7956 -14.7956 -14.7944
   -14.7944 -14.7521 -14.7521 -14.7403 -14.7403 -14.7388 -14.7132 -14.7114
   -14.7114 -14.7037 -14.7037 -14.6610 -14.6340  -8.2412   1.8285   2.6626
     4.2545   4.6879   4.6879   5.3335   6.3500   7.0237   9.1113   9.7081
     9.7081  10.6919  10.6919  10.9220  11.0461  11.0461  11.5192  11.8592
    11.8592  12.4492  12.4492  12.5630  13.8060  14.0220  15.1836  15.1836
    15.2047  15.2048  15.3196  15.4727  15.4727  15.5908  15.5908  16.1729
    16.4676  16.4676

     occupation numbers 
     1.0000   1.0000   1.0000   1.0000   1.0000   1.0000   1.0000   1.0000
     1.0000   1.0000   1.0000   1.0000   1.0000   1.0000   1.0000   1.0000
     1.0000   1.0000   1.0000   1.0000   1.0000   1.0000   1.0000   1.0000
     1.0000   1.0000   1.0000   1.0000   1.0000   1.0000   1.0000   1.0000
     1.0000   1.0000   1.0000   1.0000   1.0000   1.0000   1.0000   1.0000
     1.0000   1.0000   1.0000   1.0000   1.0000   1.0000   1.0000   1.0000
     1.0000   1.0000   1.0000   1.0000   1.0000   1.0000   1.0000   1.0000
     1.0000   1.0000   1.0000   1.0000   0.9977   0.9560   0.0000   0.0000
     0.0000   0.0000   0.0000   0.0000   0.0000   0.0000   0.0000   0.0000
     0.0000   0.0000

          k = 0.0000 0.0000 0.2530 (  6638 PWs)   bands (ev):

   -49.9825 -49.8824 -49.8823 -24.0785 -24.0025 -23.9816 -23.9816 -23.9067
   -23.9067 -23.6593 -23.4157 -23.4157 -15.1034 -15.0248 -15.0248 -14.9499
   -14.9499 -14.8590 -14.8590 -14.8568 -14.8568 -14.7956 -14.7956 -14.7944
   -14.7944 -14.7494 -14.7494 -14.7430 -14.7430 -14.7367 -14.7153 -14.7125
   -14.7125 -14.7027 -14.7027 -14.6631 -14.6319  -8.2412   1.8142   2.6684
     4.2987   4.6880   4.6880   5.2760   6.2691   7.1645   9.4323   9.8705
     9.8705  10.4322  10.4322  10.4798  10.9990  10.9990  11.2112  11.9416
    11.9416  12.4740  12.4740  12.8328  13.5926  14.3004  15.0670  15.0670
    15.2751  15.2751  15.3195  15.4568  15.4568  15.9404  15.9404  16.2549
    16.6352  16.6352

     occupation numbers 
     1.0000   1.0000   1.0000   1.0000   1.0000   1.0000   1.0000   1.0000
     1.0000   1.0000   1.0000   1.0000   1.0000   1.0000   1.0000   1.0000
     1.0000   1.0000   1.0000   1.0000   1.0000   1.0000   1.0000   1.0000
     1.0000   1.0000   1.0000   1.0000   1.0000   1.0000   1.0000   1.0000
     1.0000   1.0000   1.0000   1.0000   1.0000   1.0000   1.0000   1.0000
     1.0000   1.0000   1.0000   1.0000   1.0000   1.0000   1.0000   1.0000
     1.0000   1.0000   1.0000   1.0000   1.0000   1.0000   1.0000   1.0000
     1.0000   1.0000   1.0000   1.0000   1.0000   0.6022   0.0001   0.0001
     0.0000   0.0000   0.0000   0.0000   0.0000   0.0000   0.0000   0.0000
     0.0000   0.0000

          k = 0.0000 0.0000-0.3374 (  6620 PWs)   bands (ev):

   -49.9825 -49.8824 -49.8823 -24.0785 -24.0025 -23.9816 -23.9816 -23.9067
   -23.9067 -23.6593 -23.4157 -23.4157 -15.1033 -15.0248 -15.0248 -14.9499
   -14.9499 -14.8588 -14.8588 -14.8569 -14.8569 -14.7957 -14.7957 -14.7943
   -14.7943 -14.7464 -14.7464 -14.7461 -14.7461 -14.7357 -14.7163 -14.7128
   -14.7128 -14.7023 -14.7023 -14.6639 -14.6311  -8.2411   1.8083   2.6710
     4.3167   4.6881   4.6881   5.2534   6.2416   7.2181   9.6518  10.0062
    10.0062  10.2252  10.2593  10.2593  10.9815  10.9815  11.1010  11.9742
    11.9743  12.4826  12.4826  13.0236  13.3301  14.5064  15.0138  15.0138
    15.2922  15.2922  15.3195  15.4533  15.4533  16.1875  16.1875  16.2819
    16.6978  16.6978

     occupation numbers 
     1.0000   1.0000   1.0000   1.0000   1.0000   1.0000   1.0000   1.0000
     1.0000   1.0000   1.0000   1.0000   1.0000   1.0000   1.0000   1.0000
     1.0000   1.0000   1.0000   1.0000   1.0000   1.0000   1.0000   1.0000
     1.0000   1.0000   1.0000   1.0000   1.0000   1.0000   1.0000   1.0000
     1.0000   1.0000   1.0000   1.0000   1.0000   1.0000   1.0000   1.0000
     1.0000   1.0000   1.0000   1.0000   1.0000   1.0000   1.0000   1.0000
     1.0000   1.0000   1.0000   1.0000   1.0000   1.0000   1.0000   1.0000
     1.0000   1.0000   1.0000   1.0000   1.0000   0.2085   0.0003   0.0003
     0.0000   0.0000   0.0000   0.0000   0.0000   0.0000   0.0000   0.0000
     0.0000   0.0000

          k = 0.0000 0.1443 0.0000 (  6619 PWs)   bands (ev):

   -49.9791 -49.8858 -49.8824 -24.0595 -23.9993 -23.9787 -23.9688 -23.9099
   -23.9067 -23.6691 -23.4401 -23.4199 -15.1022 -15.0247 -15.0245 -14.9488
   -14.9472 -14.8652 -14.8620 -14.8618 -14.8587 -14.7978 -14.7960 -14.7896
   -14.7887 -14.7551 -14.7534 -14.7383 -14.7370 -14.7350 -14.7101 -14.7084
   -14.7073 -14.7057 -14.7053 -14.6590 -14.6388  -8.2377   1.9174   2.7498
     4.0807   4.6615   4.8362   5.3669   6.2714   6.4405   8.8199   9.4938
     9.9230  10.6742  10.7113  11.1357  11.1697  11.5733  12.0013  12.0340
    12.1172  12.3022  12.5370  12.5484  12.9650  14.6799  14.9032  15.0152
    15.2288  15.2949  15.3769  15.3987  15.4530  15.7377  15.7788  15.9378
    16.2474  16.3577

     occupation numbers 
     1.0000   1.0000   1.0000   1.0000   1.0000   1.0000   1.0000   1.0000
     1.0000   1.0000   1.0000   1.0000   1.0000   1.0000   1.0000   1.0000
     1.0000   1.0000   1.0000   1.0000   1.0000   1.0000   1.0000   1.0000
     1.0000   1.0000   1.0000   1.0000   1.0000   1.0000   1.0000   1.0000
     1.0000   1.0000   1.0000   1.0000   1.0000   1.0000   1.0000   1.0000
     1.0000   1.0000   1.0000   1.0000   1.0000   1.0000   1.0000   1.0000
     1.0000   1.0000   1.0000   1.0000   1.0000   1.0000   1.0000   1.0000
     1.0000   1.0000   1.0000   1.0000   1.0000   0.0433   0.0020   0.0003
     0.0000   0.0000   0.0000   0.0000   0.0000   0.0000   0.0000   0.0000
     0.0000   0.0000

          k = 0.0000 0.1443 0.0843 (  6628 PWs)   bands (ev):

   -49.9791 -49.8858 -49.8824 -24.0595 -23.9993 -23.9787 -23.9688 -23.9099
   -23.9067 -23.6691 -23.4401 -23.4199 -15.1022 -15.0247 -15.0245 -14.9488
   -14.9472 -14.8651 -14.8619 -14.8619 -14.8588 -14.7979 -14.7960 -14.7896
   -14.7887 -14.7545 -14.7528 -14.7390 -14.7376 -14.7343 -14.7111 -14.7094
   -14.7069 -14.7054 -14.7047 -14.6601 -14.6378  -8.2377   1.9178   2.7354
     4.1191   4.6618   4.8277   5.3394   6.1958   6.5314   8.9113   9.5162
     9.9439  10.6071  10.6483  11.1231  11.2041  11.4037  11.7843  12.0365
    12.1004  12.4844  12.5119  12.5414  13.1897  14.5303  14.9945  15.0885
    15.2299  15.2576  15.3345  15.4067  15.4444  15.6515  15.7865  16.0669
    16.3413  16.4543

     occupation numbers 
     1.0000   1.0000   1.0000   1.0000   1.0000   1.0000   1.0000   1.0000
     1.0000   1.0000   1.0000   1.0000   1.0000   1.0000   1.0000   1.0000
     1.0000   1.0000   1.0000   1.0000   1.0000   1.0000   1.0000   1.0000
     1.0000   1.0000   1.0000   1.0000   1.0000   1.0000   1.0000   1.0000
     1.0000   1.0000   1.0000   1.0000   1.0000   1.0000   1.0000   1.0000
     1.0000   1.0000   1.0000   1.0000   1.0000   1.0000   1.0000   1.0000
     1.0000   1.0000   1.0000   1.0000   1.0000   1.0000   1.0000   1.0000
     1.0000   1.0000   1.0000   1.0000   1.0000   0.1747   0.0004   0.0001
     0.0000   0.0000   0.0000   0.0000   0.0000   0.0000   0.0000   0.0000
     0.0000   0.0000

          k = 0.0000 0.1443 0.1687 (  6621 PWs)   bands (ev):

   -49.9791 -49.8858 -49.8824 -24.0595 -23.9993 -23.9787 -23.9688 -23.9099
   -23.9067 -23.6691 -23.4401 -23.4199 -15.1022 -15.0247 -15.0245 -14.9488
   -14.9472 -14.8649 -14.8622 -14.8616 -14.8591 -14.7979 -14.7959 -14.7897
   -14.7886 -14.7527 -14.7510 -14.7408 -14.7394 -14.7326 -14.7125 -14.7109
   -14.7083 -14.7043 -14.7032 -14.6623 -14.6355  -8.2377   1.9183   2.7034
     4.2143   4.6625   4.8027   5.2755   6.0990   6.6665   9.1611   9.5779
     9.9976  10.4641  10.5101  10.8916  11.2490  11.2798  11.5109  11.9292
    12.0872  12.4551  12.5421  12.7686  13.6256  14.2288  15.0658  15.1294
    15.2276  15.2711  15.3164  15.4009  15.4402  15.6933  15.8667  16.2921
    16.5130  16.6135

     occupation numbers 
     1.0000   1.0000   1.0000   1.0000   1.0000   1.0000   1.0000   1.0000
     1.0000   1.0000   1.0000   1.0000   1.0000   1.0000   1.0000   1.0000
     1.0000   1.0000   1.0000   1.0000   1.0000   1.0000   1.0000   1.0000
     1.0000   1.0000   1.0000   1.0000   1.0000   1.0000   1.0000   1.0000
     1.0000   1.0000   1.0000   1.0000   1.0000   1.0000   1.0000   1.0000
     1.0000   1.0000   1.0000   1.0000   1.0000   1.0000   1.0000   1.0000
     1.0000   1.0000   1.0000   1.0000   1.0000   1.0000   1.0000   1.0000
     1.0000   1.0000   1.0000   1.0000   0.9999   0.7360   0.0001   0.0000
     0.0000   0.0000   0.0000   0.0000   0.0000   0.0000   0.0000   0.0000
     0.0000   0.0000

          k = 0.0000 0.1443 0.2530 (  6623 PWs)   bands (ev):

   -49.9791 -49.8858 -49.8824 -24.0595 -23.9993 -23.9787 -23.9688 -23.9099
   -23.9067 -23.6691 -23.4401 -23.4199 -15.1022 -15.0247 -15.0245 -14.9488
   -14.9472 -14.8646 -14.8625 -14.8613 -14.8594 -14.7980 -14.7959 -14.7898
   -14.7886 -14.7500 -14.7484 -14.7435 -14.7421 -14.7305 -14.7135 -14.7119
   -14.7103 -14.7033 -14.7022 -14.6642 -14.6336  -8.2376   1.9185   2.6748
     4.3183   4.6633   4.7661   5.2148   6.0347   6.7707   9.5058   9.6569
    10.0492  10.3230  10.3776  10.5147  11.2546  11.2595  11.3475  11.7835
    12.1081  12.4523  12.5312  12.9655  13.9592  14.0415  14.9404  15.0348
    15.2243  15.3580  15.4028  15.4071  15.4422  15.9767  16.0976  16.4497
    16.6178  16.7214

     occupation numbers 
     1.0000   1.0000   1.0000   1.0000   1.0000   1.0000   1.0000   1.0000
     1.0000   1.0000   1.0000   1.0000   1.0000   1.0000   1.0000   1.0000
     1.0000   1.0000   1.0000   1.0000   1.0000   1.0000   1.0000   1.0000
     1.0000   1.0000   1.0000   1.0000   1.0000   1.0000   1.0000   1.0000
     1.0000   1.0000   1.0000   1.0000   1.0000   1.0000   1.0000   1.0000
     1.0000   1.0000   1.0000   1.0000   1.0000   1.0000   1.0000   1.0000
     1.0000   1.0000   1.0000   1.0000   1.0000   1.0000   1.0000   1.0000
     1.0000   1.0000   1.0000   1.0000   0.9789   0.9457   0.0011   0.0002
     0.0000   0.0000   0.0000   0.0000   0.0000   0.0000   0.0000   0.0000
     0.0000   0.0000

          k = 0.0000 0.1443-0.3374 (  6638 PWs)   bands (ev):

   -49.9791 -49.8858 -49.8824 -24.0595 -23.9993 -23.9787 -23.9688 -23.9099
   -23.9067 -23.6691 -23.4401 -23.4199 -15.1022 -15.0247 -15.0245 -14.9488
   -14.9472 -14.8645 -14.8626 -14.8611 -14.8596 -14.7980 -14.7959 -14.7898
   -14.7885 -14.7469 -14.7466 -14.7455 -14.7450 -14.7295 -14.7139 -14.7123
   -14.7113 -14.7029 -14.7018 -14.6650 -14.6328  -8.2376   1.9185   2.6639
     4.3670   4.6636   4.7446   5.1905   6.0126   6.8101   9.6989   9.7722
    10.0148  10.2585  10.3021  10.3211  11.2311  11.2570  11.3064  11.7210
    12.1259  12.4517  12.5231  13.0480  13.8476  14.2213  14.8869  14.9888
    15.2244  15.3508  15.4221  15.4304  15.4629  16.2315  16.3080  16.4159
    16.5961  16.7634

     occupation numbers 
     1.0000   1.0000   1.0000   1.0000   1.0000   1.0000   1.0000   1.0000
     1.0000   1.0000   1.0000   1.0000   1.0000   1.0000   1.0000   1.0000
     1.0000   1.0000   1.0000   1.0000   1.0000   1.0000   1.0000   1.0000
     1.0000   1.0000   1.0000   1.0000   1.0000   1.0000   1.0000   1.0000
     1.0000   1.0000   1.0000   1.0000   1.0000   1.0000   1.0000   1.0000
     1.0000   1.0000   1.0000   1.0000   1.0000   1.0000   1.0000   1.0000
     1.0000   1.0000   1.0000   1.0000   1.0000   1.0000   1.0000   1.0000
     1.0000   1.0000   1.0000   1.0000   0.9955   0.7487   0.0026   0.0005
     0.0000   0.0000   0.0000   0.0000   0.0000   0.0000   0.0000   0.0000
     0.0000   0.0000

          k = 0.0000 0.2887 0.0000 (  6591 PWs)   bands (ev):

   -49.9698 -49.8952 -49.8824 -24.0219 -23.9905 -23.9539 -23.9326 -23.9190
   -23.9067 -23.6985 -23.5089 -23.4298 -15.0994 -15.0246 -15.0238 -14.9460
   -14.9407 -14.8762 -14.8727 -14.8678 -14.8648 -14.8014 -14.7987 -14.7781
   -14.7775 -14.7565 -14.7503 -14.7394 -14.7347 -14.7225 -14.7119 -14.7097
   -14.7071 -14.7046 -14.6926 -14.6638 -14.6426  -8.2291   2.1065   3.0289
     3.9255   4.6003   4.9983   5.1762   5.6659   5.9707   8.8803   9.3280
    10.2617  10.2643  10.3756  11.2653  11.3693  11.6889  11.7482  12.2590
    12.4376  12.6155  12.7280  12.8774  13.5082  14.7123  14.9397  15.0176
    15.0979  15.3410  15.3861  15.4184  15.4802  15.5261  16.3268  16.3354
    16.7011  17.1027

     occupation numbers 
     1.0000   1.0000   1.0000   1.0000   1.0000   1.0000   1.0000   1.0000
     1.0000   1.0000   1.0000   1.0000   1.0000   1.0000   1.0000   1.0000
     1.0000   1.0000   1.0000   1.0000   1.0000   1.0000   1.0000   1.0000
     1.0000   1.0000   1.0000   1.0000   1.0000   1.0000   1.0000   1.0000
     1.0000   1.0000   1.0000   1.0000   1.0000   1.0000   1.0000   1.0000
     1.0000   1.0000   1.0000   1.0000   1.0000   1.0000   1.0000   1.0000
     1.0000   1.0000   1.0000   1.0000   1.0000   1.0000   1.0000   1.0000
     1.0000   1.0000   1.0000   1.0000   1.0000   0.0300   0.0011   0.0003
     0.0001   0.0000   0.0000   0.0000   0.0000   0.0000   0.0000   0.0000
     0.0000   0.0000

          k = 0.0000 0.2887 0.0843 (  6593 PWs)   bands (ev):

   -49.9698 -49.8952 -49.8824 -24.0219 -23.9905 -23.9539 -23.9326 -23.9190
   -23.9067 -23.6985 -23.5089 -23.4298 -15.0994 -15.0246 -15.0238 -14.9460
   -14.9407 -14.8761 -14.8728 -14.8677 -14.8650 -14.8015 -14.7987 -14.7782
   -14.7775 -14.7558 -14.7497 -14.7400 -14.7353 -14.7218 -14.7129 -14.7089
   -14.7081 -14.7035 -14.6930 -14.6645 -14.6418  -8.2291   2.1214   2.9678
     4.0041   4.6011   4.9747   5.1512   5.6650   5.9849   8.9703   9.3177
    10.2596  10.2597  10.3492  11.2333  11.2947  11.5890  11.8431  12.0885
    12.6184  12.6889  12.6960  12.8695  13.4853  14.7090  14.9286  15.0730
    15.1101  15.2987  15.3983  15.4114  15.4725  15.5343  16.2203  16.5149
    16.6057  17.2316

     occupation numbers 
     1.0000   1.0000   1.0000   1.0000   1.0000   1.0000   1.0000   1.0000
     1.0000   1.0000   1.0000   1.0000   1.0000   1.0000   1.0000   1.0000
     1.0000   1.0000   1.0000   1.0000   1.0000   1.0000   1.0000   1.0000
     1.0000   1.0000   1.0000   1.0000   1.0000   1.0000   1.0000   1.0000
     1.0000   1.0000   1.0000   1.0000   1.0000   1.0000   1.0000   1.0000
     1.0000   1.0000   1.0000   1.0000   1.0000   1.0000   1.0000   1.0000
     1.0000   1.0000   1.0000   1.0000   1.0000   1.0000   1.0000   1.0000
     1.0000   1.0000   1.0000   1.0000   1.0000   0.0311   0.0013   0.0001
     0.0000   0.0000   0.0000   0.0000   0.0000   0.0000   0.0000   0.0000
     0.0000   0.0000

          k = 0.0000 0.2887 0.1687 (  6611 PWs)   bands (ev):

   -49.9698 -49.8952 -49.8824 -24.0219 -23.9905 -23.9539 -23.9326 -23.9190
   -23.9067 -23.6985 -23.5089 -23.4298 -15.0994 -15.0246 -15.0238 -14.9460
   -14.9407 -14.8759 -14.8731 -14.8674 -14.8653 -14.8016 -14.7986 -14.7783
   -14.7773 -14.7540 -14.7480 -14.7419 -14.7370 -14.7200 -14.7143 -14.7096
   -14.7081 -14.7020 -14.6941 -14.6662 -14.6401  -8.2291   2.1627   2.8379
     4.1816   4.6031   4.9134   5.0902   5.6604   6.0170   9.2203   9.2933
    10.2482  10.2567  10.2831  10.9782  11.3641  11.4075  11.6832  12.2259
    12.6262  12.6402  12.8483  12.9209  13.4934  14.6768  14.9235  15.0305
    15.1804  15.3086  15.3248  15.4333  15.4345  15.7040  16.2129  16.5062
    16.6738  17.2370

     occupation numbers 
     1.0000   1.0000   1.0000   1.0000   1.0000   1.0000   1.0000   1.0000
     1.0000   1.0000   1.0000   1.0000   1.0000   1.0000   1.0000   1.0000
     1.0000   1.0000   1.0000   1.0000   1.0000   1.0000   1.0000   1.0000
     1.0000   1.0000   1.0000   1.0000   1.0000   1.0000   1.0000   1.0000
     1.0000   1.0000   1.0000   1.0000   1.0000   1.0000   1.0000   1.0000
     1.0000   1.0000   1.0000   1.0000   1.0000   1.0000   1.0000   1.0000
     1.0000   1.0000   1.0000   1.0000   1.0000   1.0000   1.0000   1.0000
     1.0000   1.0000   1.0000   1.0000   1.0000   0.0448   0.0014   0.0002
     0.0000   0.0000   0.0000   0.0000   0.0000   0.0000   0.0000   0.0000
     0.0000   0.0000

          k = 0.0000 0.2887 0.2530 (  6616 PWs)   bands (ev):

   -49.9698 -49.8952 -49.8824 -24.0219 -23.9905 -23.9539 -23.9326 -23.9190
   -23.9067 -23.6985 -23.5089 -23.4298 -15.0994 -15.0246 -15.0238 -14.9460
   -14.9407 -14.8755 -14.8734 -14.8669 -14.8658 -14.8017 -14.7985 -14.7784
   -14.7772 -14.7512 -14.7456 -14.7447 -14.7395 -14.7180 -14.7151 -14.7106
   -14.7083 -14.7010 -14.6951 -14.6677 -14.6386  -8.2290   2.2159   2.7151
     4.3678   4.6051   4.8384   5.0220   5.6535   6.0467   9.2693   9.5707
    10.1832  10.2447  10.2561  10.7601  11.0413  11.4313  11.7146  12.3329
    12.5664  12.5890  12.8236  13.0827  13.5954  14.6433  14.9247  14.9648
    15.0867  15.2088  15.4141  15.4613  15.5283  15.9632  16.3168  16.4470
    16.6825  16.9665

     occupation numbers 
     1.0000   1.0000   1.0000   1.0000   1.0000   1.0000   1.0000   1.0000
     1.0000   1.0000   1.0000   1.0000   1.0000   1.0000   1.0000   1.0000
     1.0000   1.0000   1.0000   1.0000   1.0000   1.0000   1.0000   1.0000
     1.0000   1.0000   1.0000   1.0000   1.0000   1.0000   1.0000   1.0000
     1.0000   1.0000   1.0000   1.0000   1.0000   1.0000   1.0000   1.0000
     1.0000   1.0000   1.0000   1.0000   1.0000   1.0000   1.0000   1.0000
     1.0000   1.0000   1.0000   1.0000   1.0000   1.0000   1.0000   1.0000
     1.0000   1.0000   1.0000   1.0000   1.0000   0.0639   0.0014   0.0007
     0.0001   0.0000   0.0000   0.0000   0.0000   0.0000   0.0000   0.0000
     0.0000   0.0000

          k = 0.0000 0.2887-0.3374 (  6624 PWs)   bands (ev):

   -49.9698 -49.8952 -49.8824 -24.0219 -23.9905 -23.9539 -23.9326 -23.9190
   -23.9067 -23.6985 -23.5089 -23.4298 -15.0994 -15.0246 -15.0238 -14.9460
   -14.9407 -14.8754 -14.8736 -14.8664 -14.8662 -14.8018 -14.7984 -14.7785
   -14.7772 -14.7480 -14.7478 -14.7432 -14.7418 -14.7171 -14.7150 -14.7110
   -14.7088 -14.7006 -14.6955 -14.6683 -14.6380  -8.2290   2.2444   2.6614
     4.4614   4.6058   4.7929   4.9897   5.6501   6.0585   9.2595   9.8385
    10.0660  10.2386  10.2565  10.6496  10.8803  11.4585  11.7374  12.3790
    12.5395  12.5445  12.8121  13.1394  13.6645  14.6338  14.9250  14.9268
    15.0553  15.1636  15.4166  15.4772  15.6030  16.1753  16.4048  16.5127
    16.5225  16.6354

     occupation numbers 
     1.0000   1.0000   1.0000   1.0000   1.0000   1.0000   1.0000   1.0000
     1.0000   1.0000   1.0000   1.0000   1.0000   1.0000   1.0000   1.0000
     1.0000   1.0000   1.0000   1.0000   1.0000   1.0000   1.0000   1.0000
     1.0000   1.0000   1.0000   1.0000   1.0000   1.0000   1.0000   1.0000
     1.0000   1.0000   1.0000   1.0000   1.0000   1.0000   1.0000   1.0000
     1.0000   1.0000   1.0000   1.0000   1.0000   1.0000   1.0000   1.0000
     1.0000   1.0000   1.0000   1.0000   1.0000   1.0000   1.0000   1.0000
     1.0000   1.0000   1.0000   1.0000   0.9998   0.0703   0.0014   0.0014
     0.0001   0.0000   0.0000   0.0000   0.0000   0.0000   0.0000   0.0000
     0.0000   0.0000

          k = 0.0000 0.4330 0.0000 (  6600 PWs)   bands (ev):

   -49.9571 -49.9080 -49.8824 -24.0090 -23.9784 -23.9312 -23.9068 -23.8802
   -23.8753 -23.7451 -23.6067 -23.4388 -15.0967 -15.0244 -15.0230 -14.9432
   -14.9341 -14.8851 -14.8815 -14.8734 -14.8709 -14.8034 -14.8006 -14.7688
   -14.7685 -14.7578 -14.7462 -14.7403 -14.7322 -14.7210 -14.7124 -14.7058
   -14.7034 -14.7027 -14.6784 -14.6711 -14.6487  -8.2205   2.3540   3.4792
     3.7589   4.5412   4.7194   4.9195   5.3828   5.6219   8.9942   9.1766
     9.9877  10.2302  10.3839  11.0997  11.3532  11.7218  11.9516  12.3035
    12.5563  12.8117  13.2572  13.3092  14.2508  14.3943  14.5283  15.2186
    15.2716  15.2902  15.4261  15.5302  15.6242  15.8183  16.1596  17.2376
    17.3467  17.4612

     occupation numbers 
     1.0000   1.0000   1.0000   1.0000   1.0000   1.0000   1.0000   1.0000
     1.0000   1.0000   1.0000   1.0000   1.0000   1.0000   1.0000   1.0000
     1.0000   1.0000   1.0000   1.0000   1.0000   1.0000   1.0000   1.0000
     1.0000   1.0000   1.0000   1.0000   1.0000   1.0000   1.0000   1.0000
     1.0000   1.0000   1.0000   1.0000   1.0000   1.0000   1.0000   1.0000
     1.0000   1.0000   1.0000   1.0000   1.0000   1.0000   1.0000   1.0000
     1.0000   1.0000   1.0000   1.0000   1.0000   1.0000   1.0000   1.0000
     1.0000   1.0000   1.0000   1.0000   0.6974   0.4094   0.1773   0.0000
     0.0000   0.0000   0.0000   0.0000   0.0000   0.0000   0.0000   0.0000
     0.0000   0.0000

          k = 0.0000 0.4330 0.0843 (  6612 PWs)   bands (ev):

   -49.9571 -49.9080 -49.8824 -24.0090 -23.9784 -23.9312 -23.9068 -23.8802
   -23.8753 -23.7451 -23.6067 -23.4388 -15.0967 -15.0244 -15.0230 -14.9432
   -14.9341 -14.8850 -14.8816 -14.8733 -14.8710 -14.8035 -14.8005 -14.7689
   -14.7683 -14.7572 -14.7457 -14.7410 -14.7327 -14.7207 -14.7126 -14.7069
   -14.7024 -14.7024 -14.6788 -14.6716 -14.6482  -8.2205   2.3786   3.3380
     3.8944   4.5425   4.6676   4.9212   5.4275   5.6166   9.0553   9.1367
    10.0347  10.1685  10.3847  11.0563  11.3615  11.6965  12.0493  12.1071
    12.7584  12.8276  13.2437  13.2956  14.1418  14.4375  14.5214  15.0966
    15.3211  15.3345  15.4302  15.5159  15.5401  15.8969  16.1622  17.1983
    17.2397  17.4018

     occupation numbers 
     1.0000   1.0000   1.0000   1.0000   1.0000   1.0000   1.0000   1.0000
     1.0000   1.0000   1.0000   1.0000   1.0000   1.0000   1.0000   1.0000
     1.0000   1.0000   1.0000   1.0000   1.0000   1.0000   1.0000   1.0000
     1.0000   1.0000   1.0000   1.0000   1.0000   1.0000   1.0000   1.0000
     1.0000   1.0000   1.0000   1.0000   1.0000   1.0000   1.0000   1.0000
     1.0000   1.0000   1.0000   1.0000   1.0000   1.0000   1.0000   1.0000
     1.0000   1.0000   1.0000   1.0000   1.0000   1.0000   1.0000   1.0000
     1.0000   1.0000   1.0000   1.0000   0.8606   0.3252   0.1868   0.0001
     0.0000   0.0000   0.0000   0.0000   0.0000   0.0000   0.0000   0.0000
     0.0000   0.0000

          k = 0.0000 0.4330 0.1687 (  6607 PWs)   bands (ev):

   -49.9571 -49.9080 -49.8824 -24.0090 -23.9784 -23.9312 -23.9068 -23.8802
   -23.8753 -23.7451 -23.6067 -23.4388 -15.0967 -15.0244 -15.0230 -14.9432
   -14.9341 -14.8847 -14.8819 -14.8731 -14.8712 -14.8038 -14.8003 -14.7691
   -14.7681 -14.7553 -14.7442 -14.7429 -14.7342 -14.7201 -14.7130 -14.7083
   -14.7018 -14.7009 -14.6797 -14.6726 -14.6472  -8.2205   2.4510   3.1228
     4.0740   4.5457   4.5881   4.9101   5.5118   5.6057   9.0542   9.2239
    10.0341  10.1342  10.3826  10.9546  11.3827  11.5745  11.8424  12.3940
    12.8418  13.0163  13.1971  13.2791  13.8750  14.5062  14.5596  14.8608
    15.3783  15.3948  15.3965  15.4507  15.5023  16.0818  16.2119  16.8006
    17.1143  17.4597

     occupation numbers 
     1.0000   1.0000   1.0000   1.0000   1.0000   1.0000   1.0000   1.0000
     1.0000   1.0000   1.0000   1.0000   1.0000   1.0000   1.0000   1.0000
     1.0000   1.0000   1.0000   1.0000   1.0000   1.0000   1.0000   1.0000
     1.0000   1.0000   1.0000   1.0000   1.0000   1.0000   1.0000   1.0000
     1.0000   1.0000   1.0000   1.0000   1.0000   1.0000   1.0000   1.0000
     1.0000   1.0000   1.0000   1.0000   1.0000   1.0000   1.0000   1.0000
     1.0000   1.0000   1.0000   1.0000   1.0000   1.0000   1.0000   1.0000
     1.0000   1.0000   1.0000   1.0000   0.9932   0.2088   0.1383   0.0040
     0.0000   0.0000   0.0000   0.0000   0.0000   0.0000   0.0000   0.0000
     0.0000   0.0000

          k = 0.0000 0.4330 0.2530 (  6614 PWs)   bands (ev):

   -49.9571 -49.9080 -49.8824 -24.0090 -23.9784 -23.9312 -23.9068 -23.8802
   -23.8753 -23.7451 -23.6067 -23.4388 -15.0967 -15.0244 -15.0230 -14.9432
   -14.9341 -14.8843 -14.8822 -14.8729 -14.8714 -14.8040 -14.8001 -14.7693
   -14.7680 -14.7524 -14.7458 -14.7422 -14.7362 -14.7196 -14.7130 -14.7093
   -14.7012 -14.6999 -14.6805 -14.6735 -14.6462  -8.2204   2.5656   2.9176
     4.1683   4.5489   4.5830   4.8759   5.5736   5.5987   8.9844   9.4406
     9.9074  10.2208  10.3775  10.8731  11.2417  11.4052  11.8977  12.6805
    12.9157  13.1456  13.2000  13.2703  13.5423  14.4925  14.6010  14.7704
    15.2628  15.4006  15.4207  15.4321  15.5658  16.2866  16.3691  16.4051
    16.9494  17.0533

     occupation numbers 
     1.0000   1.0000   1.0000   1.0000   1.0000   1.0000   1.0000   1.0000
     1.0000   1.0000   1.0000   1.0000   1.0000   1.0000   1.0000   1.0000
     1.0000   1.0000   1.0000   1.0000   1.0000   1.0000   1.0000   1.0000
     1.0000   1.0000   1.0000   1.0000   1.0000   1.0000   1.0000   1.0000
     1.0000   1.0000   1.0000   1.0000   1.0000   1.0000   1.0000   1.0000
     1.0000   1.0000   1.0000   1.0000   1.0000   1.0000   1.0000   1.0000
     1.0000   1.0000   1.0000   1.0000   1.0000   1.0000   1.0000   1.0000
     1.0000   1.0000   1.0000   1.0000   1.0000   0.2299   0.0962   0.0145
     0.0000   0.0000   0.0000   0.0000   0.0000   0.0000   0.0000   0.0000
     0.0000   0.0000

          k = 0.0000 0.4330-0.3374 (  6622 PWs)   bands (ev):

   -49.9571 -49.9080 -49.8824 -24.0090 -23.9784 -23.9312 -23.9068 -23.8802
   -23.8753 -23.7451 -23.6067 -23.4388 -15.0967 -15.0244 -15.0230 -14.9432
   -14.9341 -14.8842 -14.8824 -14.8728 -14.8716 -14.8041 -14.8001 -14.7694
   -14.7679 -14.7492 -14.7490 -14.7407 -14.7377 -14.7195 -14.7130 -14.7097
   -14.7011 -14.6995 -14.6809 -14.6739 -14.6458  -8.2204   2.6825   2.7702
     4.1835   4.5502   4.6150   4.8477   5.5910   5.6008   8.9582   9.5593
     9.8506  10.2540  10.3732  10.8549  11.0730  11.4150  11.9304  12.7726
    13.1244  13.1533  13.1874  13.2671  13.3107  14.4871  14.5093  14.8863
    15.1908  15.3906  15.4122  15.4483  15.5914  16.1346  16.5389  16.6612
    16.7018  16.7791

     occupation numbers 
     1.0000   1.0000   1.0000   1.0000   1.0000   1.0000   1.0000   1.0000
     1.0000   1.0000   1.0000   1.0000   1.0000   1.0000   1.0000   1.0000
     1.0000   1.0000   1.0000   1.0000   1.0000   1.0000   1.0000   1.0000
     1.0000   1.0000   1.0000   1.0000   1.0000   1.0000   1.0000   1.0000
     1.0000   1.0000   1.0000   1.0000   1.0000   1.0000   1.0000   1.0000
     1.0000   1.0000   1.0000   1.0000   1.0000   1.0000   1.0000   1.0000
     1.0000   1.0000   1.0000   1.0000   1.0000   1.0000   1.0000   1.0000
     1.0000   1.0000   1.0000   1.0000   1.0000   0.2384   0.2042   0.0027
     0.0000   0.0000   0.0000   0.0000   0.0000   0.0000   0.0000   0.0000
     0.0000   0.0000

          k = 0.0000-0.5774 0.0000 (  6620 PWs)   bands (ev):

   -49.9492 -49.9160 -49.8824 -24.0074 -23.9709 -23.9388 -23.9068 -23.8373
   -23.8056 -23.7857 -23.6805 -23.4424 -15.0956 -15.0243 -15.0227 -14.9420
   -14.9314 -14.8884 -14.8847 -14.8756 -14.8734 -14.8040 -14.8011 -14.7653
   -14.7651 -14.7584 -14.7439 -14.7407 -14.7310 -14.7230 -14.7137 -14.7053
   -14.7030 -14.6946 -14.6768 -14.6705 -14.6535  -8.2169   2.4932   3.6415
     4.0041   4.1465   4.5172   4.8613   5.3145   5.5303   9.0818   9.1175
     9.8932  10.1967  10.4886  10.8928  11.3855  11.5953  12.1185  12.1366
    12.7112  12.9705  13.4396  13.6740  14.2124  14.2497  14.9104  14.9856
    15.2099  15.4284  15.4762  15.5296  15.7333  15.9921  16.3909  17.3680
    17.3775  17.6408

     occupation numbers 
     1.0000   1.0000   1.0000   1.0000   1.0000   1.0000   1.0000   1.0000
     1.0000   1.0000   1.0000   1.0000   1.0000   1.0000   1.0000   1.0000
     1.0000   1.0000   1.0000   1.0000   1.0000   1.0000   1.0000   1.0000
     1.0000   1.0000   1.0000   1.0000   1.0000   1.0000   1.0000   1.0000
     1.0000   1.0000   1.0000   1.0000   1.0000   1.0000   1.0000   1.0000
     1.0000   1.0000   1.0000   1.0000   1.0000   1.0000   1.0000   1.0000
     1.0000   1.0000   1.0000   1.0000   1.0000   1.0000   1.0000   1.0000
     1.0000   1.0000   1.0000   0.9998   0.7632   0.6993   0.0018   0.0005
     0.0000   0.0000   0.0000   0.0000   0.0000   0.0000   0.0000   0.0000
     0.0000   0.0000

          k = 0.0000-0.5774 0.0843 (  6626 PWs)   bands (ev):

   -49.9492 -49.9160 -49.8824 -24.0074 -23.9709 -23.9388 -23.9068 -23.8373
   -23.8056 -23.7857 -23.6805 -23.4424 -15.0956 -15.0243 -15.0227 -14.9420
   -14.9314 -14.8883 -14.8848 -14.8756 -14.8734 -14.8041 -14.8010 -14.7655
   -14.7649 -14.7577 -14.7435 -14.7414 -14.7315 -14.7227 -14.7139 -14.7064
   -14.7019 -14.6943 -14.6771 -14.6708 -14.6532  -8.2169   2.5165   3.5948
     3.9261   4.2078   4.5188   4.8677   5.3753   5.5208   9.0666   9.1224
     9.9573  10.0974  10.4906  10.8955  11.3844  11.6654  11.9970  12.1934
    12.8084  12.9846  13.4439  13.6606  14.1967  14.2952  14.7302  14.8210
    15.2840  15.4248  15.4748  15.5281  15.6662  16.0529  16.4273  17.2925
    17.3682  17.6031

     occupation numbers 
     1.0000   1.0000   1.0000   1.0000   1.0000   1.0000   1.0000   1.0000
     1.0000   1.0000   1.0000   1.0000   1.0000   1.0000   1.0000   1.0000
     1.0000   1.0000   1.0000   1.0000   1.0000   1.0000   1.0000   1.0000
     1.0000   1.0000   1.0000   1.0000   1.0000   1.0000   1.0000   1.0000
     1.0000   1.0000   1.0000   1.0000   1.0000   1.0000   1.0000   1.0000
     1.0000   1.0000   1.0000   1.0000   1.0000   1.0000   1.0000   1.0000
     1.0000   1.0000   1.0000   1.0000   1.0000   1.0000   1.0000   1.0000
     1.0000   1.0000   1.0000   0.9998   0.7876   0.6125   0.0241   0.0072
     0.0000   0.0000   0.0000   0.0000   0.0000   0.0000   0.0000   0.0000
     0.0000   0.0000

          k = 0.0000-0.5774 0.1687 (  6614 PWs)   bands (ev):

   -49.9492 -49.9160 -49.8824 -24.0074 -23.9709 -23.9388 -23.9068 -23.8373
   -23.8056 -23.7857 -23.6805 -23.4424 -15.0956 -15.0243 -15.0227 -14.9420
   -14.9314 -14.8880 -14.8851 -14.8756 -14.8735 -14.8044 -14.8008 -14.7657
   -14.7646 -14.7558 -14.7433 -14.7423 -14.7327 -14.7219 -14.7146 -14.7078
   -14.7004 -14.6937 -14.6777 -14.6715 -14.6525  -8.2169   2.5801   3.5089
     3.7497   4.3319   4.5225   4.8800   5.4993   5.5024   8.9659   9.2310
     9.9004  10.0908  10.4768  10.9069  11.3810  11.7182  11.8055  12.4056
    12.9171  13.0880  13.4565  13.6265  14.1599  14.3201  14.4663  14.4895
    15.3605  15.4180  15.4693  15.5232  15.5388  16.2192  16.5154  16.7741
    17.3793  17.5142

     occupation numbers 
     1.0000   1.0000   1.0000   1.0000   1.0000   1.0000   1.0000   1.0000
     1.0000   1.0000   1.0000   1.0000   1.0000   1.0000   1.0000   1.0000
     1.0000   1.0000   1.0000   1.0000   1.0000   1.0000   1.0000   1.0000
     1.0000   1.0000   1.0000   1.0000   1.0000   1.0000   1.0000   1.0000
     1.0000   1.0000   1.0000   1.0000   1.0000   1.0000   1.0000   1.0000
     1.0000   1.0000   1.0000   1.0000   1.0000   1.0000   1.0000   1.0000
     1.0000   1.0000   1.0000   1.0000   1.0000   1.0000   1.0000   1.0000
     1.0000   1.0000   1.0000   0.9999   0.8388   0.5623   0.2732   0.2347
     0.0000   0.0000   0.0000   0.0000   0.0000   0.0000   0.0000   0.0000
     0.0000   0.0000

          k = 0.0000-0.5774 0.2530 (  6610 PWs)   bands (ev):

   -49.9492 -49.9160 -49.8824 -24.0074 -23.9709 -23.9388 -23.9068 -23.8373
   -23.8056 -23.7857 -23.6805 -23.4424 -15.0956 -15.0243 -15.0227 -14.9420
   -14.9314 -14.8876 -14.8855 -14.8755 -14.8736 -14.8047 -14.8006 -14.7659
   -14.7645 -14.7530 -14.7462 -14.7406 -14.7344 -14.7211 -14.7152 -14.7088
   -14.6994 -14.6932 -14.6784 -14.6721 -14.6518  -8.2169   2.6594   3.4424
     3.5759   4.4422   4.5262   4.8850   5.4810   5.6106   8.8837   9.3592
     9.7331  10.2075  10.4559  10.9347  11.3763  11.4427  11.9196  12.6938
    12.9403  13.2880  13.4756  13.5870  13.9582  14.1136  14.1243  14.6792
    15.3970  15.4129  15.4384  15.4598  15.5177  16.2412  16.4429  16.6165
    17.4059  17.4100

     occupation numbers 
     1.0000   1.0000   1.0000   1.0000   1.0000   1.0000   1.0000   1.0000
     1.0000   1.0000   1.0000   1.0000   1.0000   1.0000   1.0000   1.0000
     1.0000   1.0000   1.0000   1.0000   1.0000   1.0000   1.0000   1.0000
     1.0000   1.0000   1.0000   1.0000   1.0000   1.0000   1.0000   1.0000
     1.0000   1.0000   1.0000   1.0000   1.0000   1.0000   1.0000   1.0000
     1.0000   1.0000   1.0000   1.0000   1.0000   1.0000   1.0000   1.0000
     1.0000   1.0000   1.0000   1.0000   1.0000   1.0000   1.0000   1.0000
     1.0000   1.0000   1.0000   1.0000   0.9792   0.8906   0.8798   0.0437
     0.0000   0.0000   0.0000   0.0000   0.0000   0.0000   0.0000   0.0000
     0.0000   0.0000

          k = 0.0000-0.5774-0.3374 (  6620 PWs)   bands (ev):

   -49.9492 -49.9160 -49.8824 -24.0074 -23.9709 -23.9388 -23.9068 -23.8373
   -23.8056 -23.7857 -23.6805 -23.4424 -15.0956 -15.0243 -15.0227 -14.9420
   -14.9314 -14.8874 -14.8857 -14.8755 -14.8736 -14.8048 -14.8005 -14.7660
   -14.7644 -14.7496 -14.7495 -14.7396 -14.7354 -14.7207 -14.7154 -14.7092
   -14.6990 -14.6929 -14.6786 -14.6724 -14.6516  -8.2169   2.6998   3.4184
     3.5001   4.4872   4.5277   4.8835   5.4747   5.6514   8.8533   9.4201
     9.6689  10.2529  10.4465  10.9619  11.3108  11.3739  11.9621  12.8696
    12.9448  13.4161  13.4884  13.5659  13.7482  13.9321  14.1100  14.8189
    15.3736  15.4111  15.4272  15.4544  15.5155  15.9953  16.5818  16.6664
    17.2692  17.3582

     occupation numbers 
     1.0000   1.0000   1.0000   1.0000   1.0000   1.0000   1.0000   1.0000
     1.0000   1.0000   1.0000   1.0000   1.0000   1.0000   1.0000   1.0000
     1.0000   1.0000   1.0000   1.0000   1.0000   1.0000   1.0000   1.0000
     1.0000   1.0000   1.0000   1.0000   1.0000   1.0000   1.0000   1.0000
     1.0000   1.0000   1.0000   1.0000   1.0000   1.0000   1.0000   1.0000
     1.0000   1.0000   1.0000   1.0000   1.0000   1.0000   1.0000   1.0000
     1.0000   1.0000   1.0000   1.0000   1.0000   1.0000   1.0000   1.0000
     1.0000   1.0000   1.0000   1.0000   0.9991   0.9851   0.8941   0.0074
     0.0000   0.0000   0.0000   0.0000   0.0000   0.0000   0.0000   0.0000
     0.0000   0.0000

          k = 0.1250 0.2165 0.0000 (  6601 PWs)   bands (ev):

   -49.9727 -49.8922 -49.8824 -24.0269 -23.9933 -23.9748 -23.9386 -23.9161
   -23.9067 -23.6891 -23.4845 -23.4290 -15.1002 -15.0246 -15.0241 -14.9466
   -14.9428 -14.8754 -14.8719 -14.8633 -14.8603 -14.8027 -14.8003 -14.7796
   -14.7789 -14.7563 -14.7511 -14.7392 -14.7352 -14.7257 -14.7119 -14.7091
   -14.7074 -14.7048 -14.6964 -14.6622 -14.6413  -8.2317   2.0476   2.9365
     3.9893   4.5275   5.0333   5.2586   5.8328   6.0850   8.7145   9.6464
    10.0837  10.1584  10.7490  11.0635  11.4086  11.6651  11.8242  12.1799
    12.3964  12.4520  12.6363  12.7218  13.4373  14.8342  14.9479  15.0365
    15.1229  15.1517  15.3118  15.3151  15.4952  15.7057  16.1624  16.3598
    16.4315  16.8869

     occupation numbers 
     1.0000   1.0000   1.0000   1.0000   1.0000   1.0000   1.0000   1.0000
     1.0000   1.0000   1.0000   1.0000   1.0000   1.0000   1.0000   1.0000
     1.0000   1.0000   1.0000   1.0000   1.0000   1.0000   1.0000   1.0000
     1.0000   1.0000   1.0000   1.0000   1.0000   1.0000   1.0000   1.0000
     1.0000   1.0000   1.0000   1.0000   1.0000   1.0000   1.0000   1.0000
     1.0000   1.0000   1.0000   1.0000   1.0000   1.0000   1.0000   1.0000
     1.0000   1.0000   1.0000   1.0000   1.0000   1.0000   1.0000   1.0000
     1.0000   1.0000   1.0000   1.0000   1.0000   0.0060   0.0009   0.0002
     0.0000   0.0000   0.0000   0.0000   0.0000   0.0000   0.0000   0.0000
     0.0000   0.0000

          k = 0.1250 0.2165 0.0843 (  6607 PWs)   bands (ev):

   -49.9727 -49.8922 -49.8824 -24.0269 -23.9933 -23.9748 -23.9386 -23.9161
   -23.9067 -23.6891 -23.4845 -23.4290 -15.1002 -15.0246 -15.0241 -14.9466
   -14.9428 -14.8753 -14.8720 -14.8632 -14.8604 -14.8028 -14.8002 -14.7797
   -14.7789 -14.7556 -14.7505 -14.7399 -14.7358 -14.7251 -14.7129 -14.7084
   -14.7083 -14.7037 -14.6969 -14.6631 -14.6404  -8.2316   2.0583   2.8914
     4.0544   4.5287   5.0172   5.2336   5.8116   6.1094   8.8014   9.6612
    10.0807  10.1342  10.7174  11.0403  11.4400  11.5527  11.7331  11.9977
    12.4951  12.6456  12.6553  12.7237  13.4271  14.7818  14.9542  15.0255
    15.0998  15.2112  15.3204  15.3792  15.4648  15.7317  16.0744  16.3656
    16.4925  17.0167

     occupation numbers 
     1.0000   1.0000   1.0000   1.0000   1.0000   1.0000   1.0000   1.0000
     1.0000   1.0000   1.0000   1.0000   1.0000   1.0000   1.0000   1.0000
     1.0000   1.0000   1.0000   1.0000   1.0000   1.0000   1.0000   1.0000
     1.0000   1.0000   1.0000   1.0000   1.0000   1.0000   1.0000   1.0000
     1.0000   1.0000   1.0000   1.0000   1.0000   1.0000   1.0000   1.0000
     1.0000   1.0000   1.0000   1.0000   1.0000   1.0000   1.0000   1.0000
     1.0000   1.0000   1.0000   1.0000   1.0000   1.0000   1.0000   1.0000
     1.0000   1.0000   1.0000   1.0000   1.0000   0.0124   0.0008   0.0002
     0.0000   0.0000   0.0000   0.0000   0.0000   0.0000   0.0000   0.0000
     0.0000   0.0000

          k = 0.1250 0.2165 0.1687 (  6624 PWs)   bands (ev):

   -49.9727 -49.8922 -49.8824 -24.0269 -23.9933 -23.9748 -23.9386 -23.9161
[...]
     0.0000   0.0000

          k = 0.2500 0.5774 0.0000 (  6600 PWs)   bands (ev):

   -49.9395 -49.9257 -49.8825 -23.9615 -23.9483 -23.9483 -23.9068 -23.8851
   -23.8444 -23.7348 -23.6783 -23.4707 -15.0945 -15.0236 -15.0230 -14.9374
   -14.9336 -14.9021 -14.8986 -14.8497 -14.8476 -14.8286 -14.8266 -14.7602
   -14.7524 -14.7522 -14.7427 -14.7370 -14.7291 -14.7252 -14.7192 -14.7039
   -14.7011 -14.6902 -14.6820 -14.6656 -14.6580  -8.2144   2.7988   3.2926
     4.0712   4.2788   4.3383   4.8634   5.3590   5.3714   9.1183   9.2031
     9.4643   9.8446  10.9499  11.0017  11.2976  11.7961  12.4754  12.6031
    12.6631  12.8583  13.4930  13.5284  13.7394  14.1083  14.6831  14.8790
    15.2779  15.5894  15.6133  15.6186  15.8009  15.8712  16.8918  17.0875
    17.1691  17.7253

     occupation numbers 
     1.0000   1.0000   1.0000   1.0000   1.0000   1.0000   1.0000   1.0000
     1.0000   1.0000   1.0000   1.0000   1.0000   1.0000   1.0000   1.0000
     1.0000   1.0000   1.0000   1.0000   1.0000   1.0000   1.0000   1.0000
     1.0000   1.0000   1.0000   1.0000   1.0000   1.0000   1.0000   1.0000
     1.0000   1.0000   1.0000   1.0000   1.0000   1.0000   1.0000   1.0000
     1.0000   1.0000   1.0000   1.0000   1.0000   1.0000   1.0000   1.0000
     1.0000   1.0000   1.0000   1.0000   1.0000   1.0000   1.0000   1.0000
     1.0000   1.0000   1.0000   1.0000   0.9992   0.8957   0.0418   0.0030
     0.0000   0.0000   0.0000   0.0000   0.0000   0.0000   0.0000   0.0000
     0.0000   0.0000

          k = 0.2500 0.5774 0.0843 (  6615 PWs)   bands (ev):

   -49.9395 -49.9257 -49.8825 -23.9615 -23.9483 -23.9483 -23.9068 -23.8851
   -23.8444 -23.7348 -23.6783 -23.4707 -15.0945 -15.0236 -15.0230 -14.9374
   -14.9336 -14.9020 -14.8988 -14.8497 -14.8476 -14.8287 -14.8265 -14.7595
   -14.7526 -14.7520 -14.7433 -14.7366 -14.7288 -14.7256 -14.7195 -14.7047
   -14.7003 -14.6900 -14.6820 -14.6657 -14.6579  -8.2144   2.8198   3.3095
     3.9644   4.2085   4.4544   4.8232   5.3968   5.4066   9.0814   9.2554
     9.4213   9.9598  10.9428  10.9727  11.3251  11.7556  12.3529  12.6535
    12.6591  12.8588  13.4340  13.5038  13.7533  14.1297  14.6650  14.9570
    15.2294  15.4619  15.6058  15.6519  15.7181  15.8817  16.8288  16.9166
    17.3924  17.8159

     occupation numbers 
     1.0000   1.0000   1.0000   1.0000   1.0000   1.0000   1.0000   1.0000
     1.0000   1.0000   1.0000   1.0000   1.0000   1.0000   1.0000   1.0000
     1.0000   1.0000   1.0000   1.0000   1.0000   1.0000   1.0000   1.0000
     1.0000   1.0000   1.0000   1.0000   1.0000   1.0000   1.0000   1.0000
     1.0000   1.0000   1.0000   1.0000   1.0000   1.0000   1.0000   1.0000
     1.0000   1.0000   1.0000   1.0000   1.0000   1.0000   1.0000   1.0000
     1.0000   1.0000   1.0000   1.0000   1.0000   1.0000   1.0000   1.0000
     1.0000   1.0000   1.0000   1.0000   0.9990   0.8742   0.0510   0.0008
     0.0000   0.0000   0.0000   0.0000   0.0000   0.0000   0.0000   0.0000
     0.0000   0.0000

          k = 0.2500 0.5774 0.1687 (  6619 PWs)   bands (ev):

   -49.9395 -49.9257 -49.8825 -23.9615 -23.9483 -23.9483 -23.9068 -23.8851
   -23.8444 -23.7348 -23.6783 -23.4707 -15.0945 -15.0236 -15.0230 -14.9374
   -14.9336 -14.9016 -14.8991 -14.8497 -14.8476 -14.8290 -14.8263 -14.7576
   -14.7528 -14.7517 -14.7452 -14.7354 -14.7280 -14.7267 -14.7203 -14.7060
   -14.6990 -14.6896 -14.6822 -14.6661 -14.6577  -8.2144   2.8763   3.3560
     3.8147   4.0504   4.5688   4.7981   5.4409   5.5039   8.9275   9.3951
     9.4830  10.1526  10.8911  10.9206  11.4035  11.6437  12.1358  12.6516
    12.6792  12.8599  13.3117  13.4529  13.7785  14.1764  14.6150  15.0272
    15.2156  15.2788  15.5552  15.6117  15.6747  15.8879  16.7099  16.7234
    17.8508  17.9873

     occupation numbers 
     1.0000   1.0000   1.0000   1.0000   1.0000   1.0000   1.0000   1.0000
     1.0000   1.0000   1.0000   1.0000   1.0000   1.0000   1.0000   1.0000
     1.0000   1.0000   1.0000   1.0000   1.0000   1.0000   1.0000   1.0000
     1.0000   1.0000   1.0000   1.0000   1.0000   1.0000   1.0000   1.0000
     1.0000   1.0000   1.0000   1.0000   1.0000   1.0000   1.0000   1.0000
     1.0000   1.0000   1.0000   1.0000   1.0000   1.0000   1.0000   1.0000
     1.0000   1.0000   1.0000   1.0000   1.0000   1.0000   1.0000   1.0000
     1.0000   1.0000   1.0000   1.0000   0.9985   0.8168   0.0844   0.0002
     0.0000   0.0000   0.0000   0.0000   0.0000   0.0000   0.0000   0.0000
     0.0000   0.0000

          k = 0.2500 0.5774 0.2530 (  6616 PWs)   bands (ev):

   -49.9395 -49.9257 -49.8825 -23.9615 -23.9483 -23.9483 -23.9068 -23.8851
   -23.8444 -23.7348 -23.6783 -23.4707 -15.0945 -15.0236 -15.0230 -14.9374
   -14.9336 -14.9011 -14.8996 -14.8497 -14.8477 -14.8292 -14.8262 -14.7548
   -14.7530 -14.7516 -14.7481 -14.7340 -14.7282 -14.7271 -14.7211 -14.7069
   -14.6981 -14.6893 -14.6824 -14.6664 -14.6575  -8.2144   2.9446   3.4170
     3.6990   3.8966   4.5289   4.8991   5.4681   5.5845   8.7669   9.5617
     9.6108  10.3234  10.7769  10.8841  11.5111  11.5278  11.9043  12.6473
    12.6588  12.8610  13.2156  13.4085  13.7973  14.2213  14.5573  14.8944
    15.1572  15.3971  15.4723  15.5877  15.6929  15.9028  16.5661  16.6405
    18.1768  18.1978

     occupation numbers 
     1.0000   1.0000   1.0000   1.0000   1.0000   1.0000   1.0000   1.0000
     1.0000   1.0000   1.0000   1.0000   1.0000   1.0000   1.0000   1.0000
     1.0000   1.0000   1.0000   1.0000   1.0000   1.0000   1.0000   1.0000
     1.0000   1.0000   1.0000   1.0000   1.0000   1.0000   1.0000   1.0000
     1.0000   1.0000   1.0000   1.0000   1.0000   1.0000   1.0000   1.0000
     1.0000   1.0000   1.0000   1.0000   1.0000   1.0000   1.0000   1.0000
     1.0000   1.0000   1.0000   1.0000   1.0000   1.0000   1.0000   1.0000
     1.0000   1.0000   1.0000   1.0000   0.9980   0.7486   0.1410   0.0023
     0.0000   0.0000   0.0000   0.0000   0.0000   0.0000   0.0000   0.0000
     0.0000   0.0000

          k = 0.2500 0.5774-0.3374 (  6610 PWs)   bands (ev):

   -49.9395 -49.9257 -49.8825 -23.9615 -23.9483 -23.9483 -23.9068 -23.8851
   -23.8444 -23.7348 -23.6783 -23.4707 -15.0945 -15.0236 -15.0230 -14.9374
   -14.9336 -14.9007 -14.9001 -14.8497 -14.8477 -14.8293 -14.8261 -14.7531
   -14.7520 -14.7516 -14.7509 -14.7331 -14.7290 -14.7266 -14.7215 -14.7072
   -14.6978 -14.6892 -14.6825 -14.6666 -14.6574  -8.2144   2.9783   3.4528
     3.6479   3.8308   4.4968   4.9547   5.4750   5.6144   8.7028   9.6427
     9.6738  10.4086  10.7042  10.8603  11.4506  11.6853  11.7070  12.6392
    12.6464  12.8614  13.1838  13.3913  13.8039  14.2410  14.5318  14.8294
    15.1190  15.4356  15.4861  15.5861  15.7007  15.9177  16.5037  16.6087
    18.3092  18.3513

     occupation numbers 
     1.0000   1.0000   1.0000   1.0000   1.0000   1.0000   1.0000   1.0000
     1.0000   1.0000   1.0000   1.0000   1.0000   1.0000   1.0000   1.0000
     1.0000   1.0000   1.0000   1.0000   1.0000   1.0000   1.0000   1.0000
     1.0000   1.0000   1.0000   1.0000   1.0000   1.0000   1.0000   1.0000
     1.0000   1.0000   1.0000   1.0000   1.0000   1.0000   1.0000   1.0000
     1.0000   1.0000   1.0000   1.0000   1.0000   1.0000   1.0000   1.0000
     1.0000   1.0000   1.0000   1.0000   1.0000   1.0000   1.0000   1.0000
     1.0000   1.0000   1.0000   1.0000   0.9977   0.7148   0.1726   0.0064
     0.0000   0.0000   0.0000   0.0000   0.0000   0.0000   0.0000   0.0000
     0.0000   0.0000

     the Fermi energy is    14.3502 ev

!    total energy              =   -3437.06114942 Ry

     total all-electron energy =     -3437.061149 Ry
     estimated scf accuracy    <          3.2E-15 Ry
     smearing contrib. (-TS)   =      -0.01273100 Ry
     internal energy E=F+TS    =   -3437.04841842 Ry

     The total energy is F=E-TS. E is the sum of the following terms:
     one-electron contribution =    -685.17243185 Ry
     hartree contribution      =     419.00041647 Ry
     xc contribution           =    -173.38143674 Ry
     ewald contribution        =    -822.75185197 Ry
     one-center paw contrib.   =   -2174.74311433 Ry
      -> PAW hartree energy AE =      16.83962860 Ry
      -> PAW hartree energy PS =     -16.72196149 Ry
      -> PAW xc energy AE      =    -382.48208242 Ry
      -> PAW xc energy PS      =      22.19395047 Ry
      -> total E_H with PAW    =     419.11808357 Ry
      -> total E_XC with PAW   =    -533.66956869 Ry

     convergence has been achieved in  19 iterations

     Forces acting on atoms (cartesian axes, Ry/au):

     atom    1 type  1   force =     0.00000000    0.00000000    0.00000000
     atom    2 type  2   force =     0.00000000    0.00000000   -0.00000000
     atom    3 type  2   force =    -0.00000000   -0.00000000    0.00000000
     atom    4 type  2   force =    -0.00000000   -0.00000000   -0.00000000
     atom    5 type  3   force =     0.00000000    0.00000000    0.00000000
     atom    6 type  3   force =     0.00000000    0.00000000   -0.00016001
     atom    7 type  3   force =    -0.00000000    0.00000000    0.00016001
     atom    8 type  3   force =     0.00000000    0.00000000   -0.00016001
     atom    9 type  3   force =     0.00000000    0.00000000    0.00016001
     The non-local contrib.  to forces
     atom    1 type  1   force =    -0.00000000   -0.00000000    0.00000000
     atom    2 type  2   force =     0.00000000    0.00000000    0.00000000
     atom    3 type  2   force =     0.00000000    0.00000000   -0.00000000
     atom    4 type  2   force =     0.00000000    0.00000000    0.00000000
     atom    5 type  3   force =    -0.00000000   -0.00000000    0.00000000
     atom    6 type  3   force =    -0.00000000   -0.00000000   -0.25844984
     atom    7 type  3   force =     0.00000000    0.00000000    0.25844984
     atom    8 type  3   force =     0.00000000   -0.00000000   -0.25844984
     atom    9 type  3   force =    -0.00000000   -0.00000000    0.25844984
     The ionic contribution  to forces
     atom    1 type  1   force =    -0.00000539   -0.00000863   -0.00001212
     atom    2 type  2   force =     0.00002362    0.00003900    0.00000246
     atom    3 type  2   force =     0.00002328   -0.00002064    0.00000246
     atom    4 type  2   force =    -0.00003163    0.00000639    0.00000246
     atom    5 type  3   force =    -0.00003012   -0.00004922    0.00000414
     atom    6 type  3   force =     0.00000891    0.00000662   34.89014880
     atom    7 type  3   force =     0.00000121    0.00000994  -34.89014937
     atom    8 type  3   force =     0.00000121    0.00000994   34.89014967
     atom    9 type  3   force =     0.00000891    0.00000662  -34.89014850
     The local contribution  to forces
     atom    1 type  1   force =     0.00000000    0.00000000   -0.00000000
     atom    2 type  2   force =     0.00008581    0.00013808    0.00012117
     atom    3 type  2   force =     0.00018525   -0.00000654    0.00012117
     atom    4 type  2   force =    -0.00009776    0.00014572    0.00012117
     atom    5 type  3   force =     0.00000000    0.00000000    0.00013654
     atom    6 type  3   force =     0.00011867    0.00013229  -34.63376905
     atom    7 type  3   force =     0.00006234    0.00015660   34.63397755
     atom    8 type  3   force =     0.00006234    0.00015660  -34.63376905
     atom    9 type  3   force =     0.00011867    0.00013229   34.63397755
     The core correction contribution to forces
     atom    1 type  1   force =    -0.00000000   -0.00000000   -0.00000000
     atom    2 type  2   force =     0.00000021    0.00000033    0.00000027
     atom    3 type  2   force =     0.00000045   -0.00000002    0.00000027
     atom    4 type  2   force =    -0.00000024    0.00000035    0.00000027
     atom    5 type  3   force =     0.00000000    0.00000000    0.00000066
     atom    6 type  3   force =     0.00000067    0.00000074    0.00201462
     atom    7 type  3   force =     0.00000035    0.00000088   -0.00201337
     atom    8 type  3   force =     0.00000035    0.00000088    0.00201462
     atom    9 type  3   force =     0.00000067    0.00000074   -0.00201337
     The Hubbard contrib.    to forces
     atom    1 type  1   force =     0.00000000    0.00000000    0.00000000
     atom    2 type  2   force =     0.00000000    0.00000000    0.00000000
     atom    3 type  2   force =     0.00000000    0.00000000    0.00000000
     atom    4 type  2   force =     0.00000000    0.00000000    0.00000000
     atom    5 type  3   force =     0.00000000    0.00000000    0.00000000
     atom    6 type  3   force =     0.00000000    0.00000000    0.00000000
     atom    7 type  3   force =     0.00000000    0.00000000    0.00000000
     atom    8 type  3   force =     0.00000000    0.00000000    0.00000000
     atom    9 type  3   force =     0.00000000    0.00000000    0.00000000
     The SCF correction term to forces
     atom    1 type  1   force =     0.00000000    0.00000000    0.00000000
     atom    2 type  2   force =    -0.00000000   -0.00000000   -0.00000000
     atom    3 type  2   force =    -0.00000000    0.00000000   -0.00000000
     atom    4 type  2   force =     0.00000000   -0.00000000   -0.00000000
     atom    5 type  3   force =     0.00000000    0.00000000   -0.00000000
     atom    6 type  3   force =     0.00000000    0.00000000    0.00000005
     atom    7 type  3   force =     0.00000000    0.00000000   -0.00000005
     atom    8 type  3   force =     0.00000000    0.00000000    0.00000005
     atom    9 type  3   force =     0.00000000    0.00000000   -0.00000005

     Total force =     0.000320     Total SCF correction =     0.000000


     Computing stress (Cartesian axis) and pressure

          total   stress  (Ry/bohr**3)                   (kbar)     P=      150.55
   0.00102457  -0.00000000   0.00000000          150.72       -0.00        0.00
  -0.00000000   0.00102457  -0.00000000           -0.00      150.72       -0.00
   0.00000000   0.00000000   0.00102118            0.00        0.00      150.22

     kinetic stress (kbar)   8574.65     -0.00      0.00
                               -0.00   8574.65      0.00
                                0.00      0.00   8543.93

     local   stress (kbar) -15804.19      0.00     -0.00
                                0.00 -15804.19     -0.00
                               -0.00     -0.00  33823.16

     nonloc. stress (kbar)  11619.30     -0.00      0.00
                               -0.00  11619.30     -0.00
                                0.00     -0.00  11662.02

     hartree stress (kbar)  23676.87     -0.00     -0.00
                               -0.00  23676.87      0.00
                               -0.00      0.00    154.07

     exc-cor stress (kbar)  -2827.53     -0.00      0.00
                               -0.00  -2827.53      0.00
                                0.00      0.00  -2830.67

     corecor stress (kbar)  -2696.97      0.00     -0.00
                                0.00  -2696.97     -0.00
                               -0.00     -0.00  -2698.47

     ewald   stress (kbar) -22391.41     -0.00      0.00
                               -0.00 -22391.41      0.00
                                0.00      0.00 -48503.82

     hubbard stress (kbar)      0.00      0.00      0.00
                                0.00      0.00      0.00
                                0.00      0.00      0.00

     DFT-D   stress (kbar)      0.00      0.00      0.00
                                0.00      0.00      0.00
                                0.00      0.00      0.00

     XDM     stress (kbar)      0.00      0.00      0.00
                                0.00      0.00      0.00
                                0.00      0.00      0.00

     dft-nl  stress (kbar)      0.00      0.00      0.00
                                0.00      0.00      0.00
                                0.00      0.00      0.00

     TS-vdW  stress (kbar)      0.00      0.00      0.00
                                0.00      0.00      0.00
                                0.00      0.00      0.00


                                0.00      0.00      0.00
                                0.00      0.00      0.00


                                0.00      0.00      0.00


     Writing all to output data dir ./kagome.save/
 
     init_run     :      5.95s CPU     17.07s WALL (       1 calls)
     electrons    :    142.14s CPU    426.10s WALL (       1 calls)
     forces       :      0.84s CPU      1.63s WALL (       1 calls)
     stress       :      1.53s CPU      2.50s WALL (       1 calls)

     Called by init_run:
     wfcinit      :      4.53s CPU     14.25s WALL (       1 calls)
     wfcinit:atom :      0.01s CPU      0.01s WALL (      25 calls)
     wfcinit:wfcr :      4.49s CPU     14.21s WALL (      25 calls)
     potinit      :      0.68s CPU      1.06s WALL (       1 calls)
     hinit0       :      0.64s CPU      1.60s WALL (       1 calls)

     Called by electrons:
     c_bands      :    113.58s CPU    340.89s WALL (      19 calls)
     sum_band     :     18.97s CPU     65.14s WALL (      19 calls)
     v_of_rho     :      0.56s CPU      2.08s WALL (      20 calls)
     v_h          :      0.06s CPU      0.25s WALL (      20 calls)
     v_xc         :      0.54s CPU      2.01s WALL (      22 calls)
     newd         :      0.62s CPU      1.17s WALL (      20 calls)
     PAW_pot      :      8.60s CPU     14.42s WALL (      20 calls)
     mix_rho      :      0.14s CPU      0.59s WALL (      19 calls)

     Called by c_bands:
     init_us_2    :      0.20s CPU      0.32s WALL (    1025 calls)
     init_us_2:cp :      0.20s CPU      0.32s WALL (    1025 calls)
     cegterg      :    111.76s CPU    336.79s WALL (     475 calls)

     Called by sum_band:
     sum_band:wei :      0.16s CPU      0.28s WALL (      19 calls)
     sum_band:loo :     16.94s CPU     58.47s WALL (      19 calls)
     sum_band:buf :      0.03s CPU      0.05s WALL (     475 calls)
     sum_band:ini :      0.11s CPU      0.15s WALL (     475 calls)
     sum_band:cal :      1.14s CPU      2.94s WALL (     475 calls)
     sum_band:bec :      0.03s CPU      0.08s WALL (     475 calls)
     addusdens    :      0.60s CPU      0.72s WALL (      19 calls)
     addusd:skk   :      0.00s CPU      0.00s WALL (      57 calls)
     addusd:dgemm :      0.14s CPU      0.15s WALL (      57 calls)
     addusd:qvan2 :      0.41s CPU      0.41s WALL (      57 calls)

     Called by *egterg:
     cdiaghg      :     16.16s CPU     16.58s WALL (    2336 calls)
     cegterg:over :      5.07s CPU     11.93s WALL (    1861 calls)
     cegterg:upda :      0.84s CPU      0.93s WALL (    1861 calls)
     cegterg:last :      1.64s CPU      1.72s WALL (    1007 calls)
     h_psi        :     86.86s CPU    305.36s WALL (    2361 calls)
     s_psi        :      1.27s CPU      1.35s WALL (    2361 calls)
     g_psi        :      0.06s CPU      0.07s WALL (    1861 calls)

     Called by h_psi:
     h_psi:calbec :      3.45s CPU      8.80s WALL (    2361 calls)
     vloc_psi     :     82.12s CPU    295.02s WALL (    2361 calls)
     add_vuspsi   :      1.25s CPU      1.44s WALL (    2361 calls)

     General routines
     calbec       :      5.06s CPU     13.05s WALL (    2961 calls)
     fft          :      0.99s CPU      4.44s WALL (     283 calls)
     ffts         :      0.75s CPU      3.39s WALL (      39 calls)
     fftw         :     97.29s CPU    348.82s WALL (  224446 calls)
     interpolate  :      0.12s CPU      0.54s WALL (      20 calls)
 
     Parallel routines

     PAW routines
     PAW_pot      :      8.60s CPU     14.42s WALL (      20 calls)
     PAW_symme    :      0.05s CPU      0.20s WALL (      39 calls)
 
     PWSCF        :   2m34.03s CPU   8m32.97s WALL

 
   This run was terminated on:   2:36:48  30Jul2023            

=------------------------------------------------------------------------------=
   JOB DONE.
=------------------------------------------------------------------------------=
