
     Program PWSCF v.7.0 starts on 12Jun2023 at  8: 8:45 

     This program is part of the open-source Quantum ESPRESSO suite
     for quantum simulation of materials; please cite
         "P. Giannozzi et al., J. Phys.:Condens. Matter 21 395502 (2009);
         "P. Giannozzi et al., J. Phys.:Condens. Matter 29 465901 (2017);
         "P. Giannozzi et al., J. Chem. Phys. 152 154105 (2020);
          URL http://www.quantum-espresso.org", 
     in publications or presentations arising from this work. More details at
     http://www.quantum-espresso.org/quote

     Parallel version (MPI), running on    20 processors

     MPI processes distributed on     1 nodes
     K-points division:     npool     =       2
     R & G space division:  proc/nbgrp/npool/nimage =      10
     251816 MiB available memory on the printing compute node when the environment starts
 
     Reading input from vcrelax.in

     Current dimensions of program PWSCF are:
     Max number of different atomic species (ntypx) = 10
     Max number of k-points (npk) =  40000
     Max angular momentum in pseudopotentials (lmaxx) =  4
     Message from routine read_pp_mesh:
     mismatch in mesh size, discarding the one in header
     Message from routine read_pp_mesh:
     mismatch in mesh size, discarding the one in header
     Message from routine read_pp_mesh:
     mismatch in mesh size, discarding the one in header
     Message from routine setup:
     using ibrav=0 with symmetry is DISCOURAGED, use correct ibrav instead

     Subspace diagonalization in iterative solution of the eigenvalue problem:
     a serial algorithm will be used

 
     Parallelization info
     --------------------
     sticks:   dense  smooth     PW     G-vecs:    dense   smooth      PW
     Min         268     134     38                20160     7128    1124
     Max         270     135     40                20165     7135    1127
     Sum        2689    1345    385               201629    71311   11251
 
     Using Slab Decomposition
 


     bravais-lattice index     =            0
     lattice parameter (alat)  =      10.4020  a.u.
     unit-cell volume          =    1747.1249 (a.u.)^3
     number of atoms/cell      =            9
     number of atomic types    =            3
     number of electrons       =       123.00
     number of Kohn-Sham states=           74
     kinetic-energy cutoff     =      45.0000  Ry
     charge density cutoff     =     360.0000  Ry
     scf convergence threshold =      1.0E-11
     mixing beta               =       0.6000
     number of iterations used =            8  plain     mixing
     energy convergence thresh.=      1.0E-05
     force convergence thresh. =      1.0E-04
     press convergence thresh. =      5.0E-01
     Exchange-correlation= SLA PW PBX PBC
                           (   1   4   3   4   0   0   0)
     nstep                     =          100


     celldm(1)=  10.402030  celldm(2)=   0.000000  celldm(3)=   0.000000
     celldm(4)=   0.000000  celldm(5)=   0.000000  celldm(6)=   0.000000

     crystal axes: (cart. coord. in units of alat)
               a(1) = (   1.000000  -0.000001   0.000000 )  
               a(2) = (  -0.500001   0.866025   0.000000 )  
               a(3) = (   0.000000   0.000000   1.792419 )  

     reciprocal axes: (cart. coord. in units 2 pi/alat)
               b(1) = (  1.000001  0.577353  0.000000 )  
               b(2) = (  0.000002  1.154702  0.000000 )  
               b(3) = (  0.000000  0.000000  0.557905 )  


     PseudoPot. # 1 for Cs read from file:
     ./Cs.upf
     MD5 check sum: 541f6363487545700a1f267f58e7ad21
     Pseudo is Projector augmented-wave + core cor, Zval =  9.0
     Generated using ATOMPAW code
     Shape of augmentation charge: SINC**2
     Using radial grid of 2342 points,  6 beta functions with: 
                l(1) =   0
                l(2) =   0
                l(3) =   1
                l(4) =   1
                l(5) =   2
                l(6) =   2
     Q(r) pseudized with 0 coefficients 


     PseudoPot. # 2 for V  read from file:
     ./V.upf
     MD5 check sum: 7f2f11533c26bed1e4abef38184b9f47
     Pseudo is Projector augmented-wave + core cor, Zval = 13.0
     Generated using ATOMPAW code
     Shape of augmentation charge: BESSEL
     Using radial grid of 2342 points,  6 beta functions with: 
                l(1) =   0
                l(2) =   0
                l(3) =   1
                l(4) =   1
                l(5) =   2
                l(6) =   2
     Q(r) pseudized with 0 coefficients 


     PseudoPot. # 3 for Sb read from file:
     ./Sb.upf
     MD5 check sum: 0b06ae7fe364114d19db6fe830587df2
     Pseudo is Projector augmented-wave + core cor, Zval = 15.0
     Generated using ATOMPAW code
     Shape of augmentation charge: BESSEL
     Using radial grid of 2342 points,  6 beta functions with: 
                l(1) =   0
                l(2) =   0
                l(3) =   1
                l(4) =   1
                l(5) =   2
                l(6) =   2
     Q(r) pseudized with 0 coefficients 


     atomic species   valence    mass     pseudopotential
        Cs             9.00   132.90545     Cs( 1.00)
        V             13.00    50.94150     V ( 1.00)
        Sb            15.00   121.76000     Sb( 1.00)

      8 Sym. Ops., with inversion, found


                                    s                        frac. trans.

      isym =  1     identity                                     

 cryst.   s( 1) = (     1          0          0      )
                  (     0          1          0      )
                  (     0          0          1      )

 cart.    s( 1) = (  1.0000000  0.0000000  0.0000000 )
                  (  0.0000000  1.0000000  0.0000000 )
                  (  0.0000000  0.0000000  1.0000000 )


      isym =  2     180 deg rotation - cart. axis [0,0,1]        

 cryst.   s( 2) = (    -1          0          0      )
                  (     0         -1          0      )
                  (     0          0          1      )

 cart.    s( 2) = ( -1.0000000 -0.0000000  0.0000000 )
                  (  0.0000000 -1.0000000  0.0000000 )
                  (  0.0000000  0.0000000  1.0000000 )


      isym =  3     180 deg rotation - cryst. axis [1,-1,0]      

 cryst.   s( 3) = (     0         -1          0      )
                  (    -1          0          0      )
                  (     0          0         -1      )

 cart.    s( 3) = (  0.5000000 -0.8660251  0.0000000 )
                  ( -0.8660257 -0.5000000  0.0000000 )
                  (  0.0000000  0.0000000 -1.0000000 )


      isym =  4     180 deg rotation - cryst. axis [1,1,0]       

 cryst.   s( 4) = (     0          1          0      )
                  (     1          0          0      )
                  (     0          0         -1      )

 cart.    s( 4) = ( -0.5000000  0.8660251  0.0000000 )
                  (  0.8660257  0.5000000  0.0000000 )
                  (  0.0000000  0.0000000 -1.0000000 )


      isym =  5     inversion                                    

 cryst.   s( 5) = (    -1          0          0      )
                  (     0         -1          0      )
                  (     0          0         -1      )

 cart.    s( 5) = ( -1.0000000 -0.0000000  0.0000000 )
                  (  0.0000000 -1.0000000  0.0000000 )
                  (  0.0000000  0.0000000 -1.0000000 )


      isym =  6     inv. 180 deg rotation - cart. axis [0,0,1]   

 cryst.   s( 6) = (     1          0          0      )
                  (     0          1          0      )
                  (     0          0         -1      )

 cart.    s( 6) = (  1.0000000  0.0000000  0.0000000 )
                  (  0.0000000  1.0000000  0.0000000 )
                  (  0.0000000  0.0000000 -1.0000000 )


      isym =  7     inv. 180 deg rotation - cryst. axis [1,-1,0] 

 cryst.   s( 7) = (     0          1          0      )
                  (     1          0          0      )
                  (     0          0          1      )

 cart.    s( 7) = ( -0.5000000  0.8660251  0.0000000 )
                  (  0.8660257  0.5000000  0.0000000 )
                  (  0.0000000  0.0000000  1.0000000 )


      isym =  8     inv. 180 deg rotation - cryst. axis [1,1,0]  

 cryst.   s( 8) = (     0         -1          0      )
                  (    -1          0          0      )
                  (     0          0          1      )

 cart.    s( 8) = (  0.5000000 -0.8660251  0.0000000 )
                  ( -0.8660257 -0.5000000  0.0000000 )
                  (  0.0000000  0.0000000  1.0000000 )


   Cartesian axes

     site n.     atom                  positions (alat units)
         1           Cs  tau(   1) = (   0.0000000   0.0000000   0.0000000  )
         2           V   tau(   2) = (   0.2499994   0.4330117   0.8962097  )
         3           V   tau(   3) = (   0.5000000  -0.0000007   0.8962097  )
         4           V   tau(   4) = (  -0.2500006   0.4330125   0.8962097  )
         5           Sb  tau(   5) = (   0.0000000   0.0000000   0.8962097  )
         6           Sb  tau(   6) = (   0.4999990   0.2886743   1.3086774  )
         7           Sb  tau(   7) = (  -0.0000003   0.5773491   0.4837420  )
         8           Sb  tau(   8) = (  -0.0000003   0.5773491   1.3086774  )
         9           Sb  tau(   9) = (   0.4999990   0.2886743   0.4837420  )

   Crystallographic axes

     site n.     atom                  positions (cryst. coord.)
         1           Cs  tau(   1) = (  0.0000000  0.0000000  0.0000000  )
         2           V   tau(   2) = (  0.5000000  0.5000000  0.5000000  )
         3           V   tau(   3) = (  0.5000000 -0.0000000  0.5000000  )
         4           V   tau(   4) = ( -0.0000000  0.5000000  0.5000000  )
         5           Sb  tau(   5) = (  0.0000000  0.0000000  0.5000000  )
         6           Sb  tau(   6) = (  0.6666663  0.3333337  0.7301178  )
         7           Sb  tau(   7) = (  0.3333337  0.6666663  0.2698822  )
         8           Sb  tau(   8) = (  0.3333337  0.6666663  0.7301178  )
         9           Sb  tau(   9) = (  0.6666663  0.3333337  0.2698822  )

     number of k points=   100  Gaussian smearing, width (Ry)=  0.0200
                       cart. coord. in units 2pi/alat
        k(    1) = (   0.0000000   0.0000000   0.0000000), wk =   0.0041152
        k(    2) = (   0.0000000   0.0000000   0.0929842), wk =   0.0082305
        k(    3) = (   0.0000000   0.0000000   0.1859684), wk =   0.0082305
        k(    4) = (   0.0000000   0.0000000  -0.2789526), wk =   0.0041152
        k(    5) = (   0.0000002   0.1283002   0.0000000), wk =   0.0164609
        k(    6) = (   0.0000002   0.1283002   0.0929842), wk =   0.0329218
        k(    7) = (   0.0000002   0.1283002   0.1859684), wk =   0.0329218
        k(    8) = (   0.0000002   0.1283002  -0.2789526), wk =   0.0164609
        k(    9) = (   0.0000004   0.2566005   0.0000000), wk =   0.0164609
        k(   10) = (   0.0000004   0.2566005   0.0929842), wk =   0.0329218
        k(   11) = (   0.0000004   0.2566005   0.1859684), wk =   0.0329218
        k(   12) = (   0.0000004   0.2566005  -0.2789526), wk =   0.0164609
        k(   13) = (   0.0000006   0.3849007   0.0000000), wk =   0.0164609
        k(   14) = (   0.0000006   0.3849007   0.0929842), wk =   0.0329218
        k(   15) = (   0.0000006   0.3849007   0.1859684), wk =   0.0329218
        k(   16) = (   0.0000006   0.3849007  -0.2789526), wk =   0.0164609
        k(   17) = (   0.0000008   0.5132010   0.0000000), wk =   0.0164609
        k(   18) = (   0.0000008   0.5132010   0.0929842), wk =   0.0329218
        k(   19) = (   0.0000008   0.5132010   0.1859684), wk =   0.0329218
        k(   20) = (   0.0000008   0.5132010  -0.2789526), wk =   0.0164609
        k(   21) = (   0.1111114   0.1924505   0.0000000), wk =   0.0082305
        k(   22) = (   0.1111114   0.1924505   0.0929842), wk =   0.0164609
        k(   23) = (   0.1111114   0.1924505   0.1859684), wk =   0.0164609
        k(   24) = (   0.1111114   0.1924505  -0.2789526), wk =   0.0082305
        k(   25) = (   0.1111116   0.3207508   0.0000000), wk =   0.0164609
        k(   26) = (   0.1111116   0.3207508   0.0929842), wk =   0.0329218
        k(   27) = (   0.1111116   0.3207508   0.1859684), wk =   0.0329218
        k(   28) = (   0.1111116   0.3207508  -0.2789526), wk =   0.0164609
        k(   29) = (   0.1111118   0.4490510   0.0000000), wk =   0.0164609
        k(   30) = (   0.1111118   0.4490510   0.0929842), wk =   0.0329218
        k(   31) = (   0.1111118   0.4490510   0.1859684), wk =   0.0329218
        k(   32) = (   0.1111118   0.4490510  -0.2789526), wk =   0.0164609
        k(   33) = (   0.1111120   0.5773512   0.0000000), wk =   0.0164609
        k(   34) = (   0.1111120   0.5773512   0.0929842), wk =   0.0329218
        k(   35) = (   0.1111120   0.5773512   0.1859684), wk =   0.0329218
        k(   36) = (   0.1111120   0.5773512  -0.2789526), wk =   0.0164609
        k(   37) = (   0.1111104  -0.4490507   0.0000000), wk =   0.0164609
        k(   38) = (   0.1111104  -0.4490507   0.0929842), wk =   0.0329218
        k(   39) = (   0.1111104  -0.4490507   0.1859684), wk =   0.0329218
        k(   40) = (   0.1111104  -0.4490507  -0.2789526), wk =   0.0164609
        k(   41) = (   0.1111106  -0.3207504   0.0000000), wk =   0.0164609
        k(   42) = (   0.1111106  -0.3207504   0.0929842), wk =   0.0329218
        k(   43) = (   0.1111106  -0.3207504   0.1859684), wk =   0.0329218
        k(   44) = (   0.1111106  -0.3207504  -0.2789526), wk =   0.0164609
        k(   45) = (   0.1111108  -0.1924502   0.0000000), wk =   0.0164609
        k(   46) = (   0.1111108  -0.1924502   0.0929842), wk =   0.0329218
        k(   47) = (   0.1111108  -0.1924502   0.1859684), wk =   0.0329218
        k(   48) = (   0.1111108  -0.1924502  -0.2789526), wk =   0.0164609
        k(   49) = (   0.1111110  -0.0641500   0.0000000), wk =   0.0082305
        k(   50) = (   0.1111110  -0.0641500   0.0929842), wk =   0.0164609
        k(   51) = (   0.1111110  -0.0641500   0.1859684), wk =   0.0164609
        k(   52) = (   0.1111110  -0.0641500  -0.2789526), wk =   0.0082305
        k(   53) = (   0.2222228   0.3849010   0.0000000), wk =   0.0082305
        k(   54) = (   0.2222228   0.3849010   0.0929842), wk =   0.0164609
        k(   55) = (   0.2222228   0.3849010   0.1859684), wk =   0.0164609
        k(   56) = (   0.2222228   0.3849010  -0.2789526), wk =   0.0082305
        k(   57) = (   0.2222230   0.5132013   0.0000000), wk =   0.0164609
        k(   58) = (   0.2222230   0.5132013   0.0929842), wk =   0.0329218
        k(   59) = (   0.2222230   0.5132013   0.1859684), wk =   0.0329218
        k(   60) = (   0.2222230   0.5132013  -0.2789526), wk =   0.0164609
        k(   61) = (   0.2222232   0.6415015   0.0000000), wk =   0.0164609
        k(   62) = (   0.2222232   0.6415015   0.0929842), wk =   0.0329218
        k(   63) = (   0.2222232   0.6415015   0.1859684), wk =   0.0329218
        k(   64) = (   0.2222232   0.6415015  -0.2789526), wk =   0.0164609
        k(   65) = (   0.2222217  -0.3849004   0.0000000), wk =   0.0164609
        k(   66) = (   0.2222217  -0.3849004   0.0929842), wk =   0.0329218
        k(   67) = (   0.2222217  -0.3849004   0.1859684), wk =   0.0329218
        k(   68) = (   0.2222217  -0.3849004  -0.2789526), wk =   0.0164609
        k(   69) = (   0.2222218  -0.2566001   0.0000000), wk =   0.0164609
        k(   70) = (   0.2222218  -0.2566001   0.0929842), wk =   0.0329218
        k(   71) = (   0.2222218  -0.2566001   0.1859684), wk =   0.0329218
        k(   72) = (   0.2222218  -0.2566001  -0.2789526), wk =   0.0164609
        k(   73) = (   0.2222220  -0.1282999   0.0000000), wk =   0.0082305
        k(   74) = (   0.2222220  -0.1282999   0.0929842), wk =   0.0164609
        k(   75) = (   0.2222220  -0.1282999   0.1859684), wk =   0.0164609
        k(   76) = (   0.2222220  -0.1282999  -0.2789526), wk =   0.0082305
        k(   77) = (   0.3333342   0.5773516   0.0000000), wk =   0.0082305
        k(   78) = (   0.3333342   0.5773516   0.0929842), wk =   0.0164609
        k(   79) = (   0.3333342   0.5773516   0.1859684), wk =   0.0164609
        k(   80) = (   0.3333342   0.5773516  -0.2789526), wk =   0.0082305
        k(   81) = (   0.3333344   0.7056518   0.0000000), wk =   0.0164609
        k(   82) = (   0.3333344   0.7056518   0.0929842), wk =   0.0329218
        k(   83) = (   0.3333344   0.7056518   0.1859684), wk =   0.0329218
        k(   84) = (   0.3333344   0.7056518  -0.2789526), wk =   0.0164609
        k(   85) = (   0.3333329  -0.3207501   0.0000000), wk =   0.0164609
        k(   86) = (   0.3333329  -0.3207501   0.0929842), wk =   0.0329218
        k(   87) = (   0.3333329  -0.3207501   0.1859684), wk =   0.0329218
        k(   88) = (   0.3333329  -0.3207501  -0.2789526), wk =   0.0164609
        k(   89) = (   0.3333330  -0.1924499   0.0000000), wk =   0.0082305
        k(   90) = (   0.3333330  -0.1924499   0.0929842), wk =   0.0164609
        k(   91) = (   0.3333330  -0.1924499   0.1859684), wk =   0.0164609
        k(   92) = (   0.3333330  -0.1924499  -0.2789526), wk =   0.0082305
        k(   93) = (   0.4444456   0.7698021   0.0000000), wk =   0.0082305
        k(   94) = (   0.4444456   0.7698021   0.0929842), wk =   0.0164609
        k(   95) = (   0.4444456   0.7698021   0.1859684), wk =   0.0164609
        k(   96) = (   0.4444456   0.7698021  -0.2789526), wk =   0.0082305
        k(   97) = (   0.4444441  -0.2565998   0.0000000), wk =   0.0082305
        k(   98) = (   0.4444441  -0.2565998   0.0929842), wk =   0.0164609
        k(   99) = (   0.4444441  -0.2565998   0.1859684), wk =   0.0164609
        k(  100) = (   0.4444441  -0.2565998  -0.2789526), wk =   0.0082305

                       cryst. coord.
        k(    1) = (   0.0000000   0.0000000   0.0000000), wk =   0.0041152
        k(    2) = (   0.0000000   0.0000000   0.1666667), wk =   0.0082305
        k(    3) = (   0.0000000   0.0000000   0.3333333), wk =   0.0082305
        k(    4) = (   0.0000000   0.0000000  -0.5000000), wk =   0.0041152
        k(    5) = (   0.0000000   0.1111111   0.0000000), wk =   0.0164609
        k(    6) = (   0.0000000   0.1111111   0.1666667), wk =   0.0329218
        k(    7) = (   0.0000000   0.1111111   0.3333333), wk =   0.0329218
        k(    8) = (   0.0000000   0.1111111  -0.5000000), wk =   0.0164609
        k(    9) = (   0.0000000   0.2222222   0.0000000), wk =   0.0164609
        k(   10) = (   0.0000000   0.2222222   0.1666667), wk =   0.0329218
        k(   11) = (   0.0000000   0.2222222   0.3333333), wk =   0.0329218
        k(   12) = (   0.0000000   0.2222222  -0.5000000), wk =   0.0164609
        k(   13) = (   0.0000000   0.3333333   0.0000000), wk =   0.0164609
        k(   14) = (   0.0000000   0.3333333   0.1666667), wk =   0.0329218
        k(   15) = (   0.0000000   0.3333333   0.3333333), wk =   0.0329218
        k(   16) = (   0.0000000   0.3333333  -0.5000000), wk =   0.0164609
        k(   17) = (   0.0000000   0.4444444   0.0000000), wk =   0.0164609
        k(   18) = (   0.0000000   0.4444444   0.1666667), wk =   0.0329218
        k(   19) = (   0.0000000   0.4444444   0.3333333), wk =   0.0329218
        k(   20) = (   0.0000000   0.4444444  -0.5000000), wk =   0.0164609
        k(   21) = (   0.1111111   0.1111111   0.0000000), wk =   0.0082305
        k(   22) = (   0.1111111   0.1111111   0.1666667), wk =   0.0164609
        k(   23) = (   0.1111111   0.1111111   0.3333333), wk =   0.0164609
        k(   24) = (   0.1111111   0.1111111  -0.5000000), wk =   0.0082305
        k(   25) = (   0.1111111   0.2222222   0.0000000), wk =   0.0164609
        k(   26) = (   0.1111111   0.2222222   0.1666667), wk =   0.0329218
        k(   27) = (   0.1111111   0.2222222   0.3333333), wk =   0.0329218
        k(   28) = (   0.1111111   0.2222222  -0.5000000), wk =   0.0164609
        k(   29) = (   0.1111111   0.3333333   0.0000000), wk =   0.0164609
        k(   30) = (   0.1111111   0.3333333   0.1666667), wk =   0.0329218
        k(   31) = (   0.1111111   0.3333333   0.3333333), wk =   0.0329218
        k(   32) = (   0.1111111   0.3333333  -0.5000000), wk =   0.0164609
        k(   33) = (   0.1111111   0.4444444   0.0000000), wk =   0.0164609
        k(   34) = (   0.1111111   0.4444444   0.1666667), wk =   0.0329218
        k(   35) = (   0.1111111   0.4444444   0.3333333), wk =   0.0329218
        k(   36) = (   0.1111111   0.4444444  -0.5000000), wk =   0.0164609
        k(   37) = (   0.1111111  -0.4444444   0.0000000), wk =   0.0164609
        k(   38) = (   0.1111111  -0.4444444   0.1666667), wk =   0.0329218
        k(   39) = (   0.1111111  -0.4444444   0.3333333), wk =   0.0329218
        k(   40) = (   0.1111111  -0.4444444  -0.5000000), wk =   0.0164609
        k(   41) = (   0.1111111  -0.3333333   0.0000000), wk =   0.0164609
        k(   42) = (   0.1111111  -0.3333333   0.1666667), wk =   0.0329218
        k(   43) = (   0.1111111  -0.3333333   0.3333333), wk =   0.0329218
        k(   44) = (   0.1111111  -0.3333333  -0.5000000), wk =   0.0164609
        k(   45) = (   0.1111111  -0.2222222   0.0000000), wk =   0.0164609
        k(   46) = (   0.1111111  -0.2222222   0.1666667), wk =   0.0329218
        k(   47) = (   0.1111111  -0.2222222   0.3333333), wk =   0.0329218
        k(   48) = (   0.1111111  -0.2222222  -0.5000000), wk =   0.0164609
        k(   49) = (   0.1111111  -0.1111111   0.0000000), wk =   0.0082305
        k(   50) = (   0.1111111  -0.1111111   0.1666667), wk =   0.0164609
        k(   51) = (   0.1111111  -0.1111111   0.3333333), wk =   0.0164609
        k(   52) = (   0.1111111  -0.1111111  -0.5000000), wk =   0.0082305
        k(   53) = (   0.2222222   0.2222222   0.0000000), wk =   0.0082305
        k(   54) = (   0.2222222   0.2222222   0.1666667), wk =   0.0164609
        k(   55) = (   0.2222222   0.2222222   0.3333333), wk =   0.0164609
        k(   56) = (   0.2222222   0.2222222  -0.5000000), wk =   0.0082305
        k(   57) = (   0.2222222   0.3333333   0.0000000), wk =   0.0164609
        k(   58) = (   0.2222222   0.3333333   0.1666667), wk =   0.0329218
        k(   59) = (   0.2222222   0.3333333   0.3333333), wk =   0.0329218
        k(   60) = (   0.2222222   0.3333333  -0.5000000), wk =   0.0164609
        k(   61) = (   0.2222222   0.4444444   0.0000000), wk =   0.0164609
        k(   62) = (   0.2222222   0.4444444   0.1666667), wk =   0.0329218
        k(   63) = (   0.2222222   0.4444444   0.3333333), wk =   0.0329218
        k(   64) = (   0.2222222   0.4444444  -0.5000000), wk =   0.0164609
        k(   65) = (   0.2222222  -0.4444444   0.0000000), wk =   0.0164609
        k(   66) = (   0.2222222  -0.4444444   0.1666667), wk =   0.0329218
        k(   67) = (   0.2222222  -0.4444444   0.3333333), wk =   0.0329218
        k(   68) = (   0.2222222  -0.4444444  -0.5000000), wk =   0.0164609
        k(   69) = (   0.2222222  -0.3333333   0.0000000), wk =   0.0164609
        k(   70) = (   0.2222222  -0.3333333   0.1666667), wk =   0.0329218
        k(   71) = (   0.2222222  -0.3333333   0.3333333), wk =   0.0329218
        k(   72) = (   0.2222222  -0.3333333  -0.5000000), wk =   0.0164609
        k(   73) = (   0.2222222  -0.2222222   0.0000000), wk =   0.0082305
        k(   74) = (   0.2222222  -0.2222222   0.1666667), wk =   0.0164609
        k(   75) = (   0.2222222  -0.2222222   0.3333333), wk =   0.0164609
        k(   76) = (   0.2222222  -0.2222222  -0.5000000), wk =   0.0082305
        k(   77) = (   0.3333333   0.3333333   0.0000000), wk =   0.0082305
        k(   78) = (   0.3333333   0.3333333   0.1666667), wk =   0.0164609
        k(   79) = (   0.3333333   0.3333333   0.3333333), wk =   0.0164609
        k(   80) = (   0.3333333   0.3333333  -0.5000000), wk =   0.0082305
        k(   81) = (   0.3333333   0.4444444   0.0000000), wk =   0.0164609
        k(   82) = (   0.3333333   0.4444444   0.1666667), wk =   0.0329218
        k(   83) = (   0.3333333   0.4444444   0.3333333), wk =   0.0329218
        k(   84) = (   0.3333333   0.4444444  -0.5000000), wk =   0.0164609
        k(   85) = (   0.3333333  -0.4444444   0.0000000), wk =   0.0164609
        k(   86) = (   0.3333333  -0.4444444   0.1666667), wk =   0.0329218
        k(   87) = (   0.3333333  -0.4444444   0.3333333), wk =   0.0329218
        k(   88) = (   0.3333333  -0.4444444  -0.5000000), wk =   0.0164609
        k(   89) = (   0.3333333  -0.3333333   0.0000000), wk =   0.0082305
        k(   90) = (   0.3333333  -0.3333333   0.1666667), wk =   0.0164609
        k(   91) = (   0.3333333  -0.3333333   0.3333333), wk =   0.0164609
        k(   92) = (   0.3333333  -0.3333333  -0.5000000), wk =   0.0082305
        k(   93) = (   0.4444444   0.4444444   0.0000000), wk =   0.0082305
        k(   94) = (   0.4444444   0.4444444   0.1666667), wk =   0.0164609
        k(   95) = (   0.4444444   0.4444444   0.3333333), wk =   0.0164609
        k(   96) = (   0.4444444   0.4444444  -0.5000000), wk =   0.0082305
        k(   97) = (   0.4444444  -0.4444444   0.0000000), wk =   0.0082305
        k(   98) = (   0.4444444  -0.4444444   0.1666667), wk =   0.0164609
        k(   99) = (   0.4444444  -0.4444444   0.3333333), wk =   0.0164609
        k(  100) = (   0.4444444  -0.4444444  -0.5000000), wk =   0.0082305

     Dense  grid:   201629 G-vectors     FFT dimensions: (  64,  64, 120)

     Smooth grid:    71311 G-vectors     FFT dimensions: (  45,  45,  80)

     Dynamical RAM for                 wfc:       1.00 MB

     Dynamical RAM for     wfc (w. buffer):      51.25 MB

     Dynamical RAM for           str. fact:       0.92 MB

     Dynamical RAM for           local pot:       0.00 MB

     Dynamical RAM for          nlocal pot:       2.20 MB

     Dynamical RAM for                qrad:       9.14 MB

     Dynamical RAM for          rho,v,vnew:       2.05 MB

     Dynamical RAM for               rhoin:       0.68 MB

     Dynamical RAM for            rho*nmix:       4.92 MB

     Dynamical RAM for           G-vectors:       1.21 MB

     Dynamical RAM for          h,s,v(r/c):       1.00 MB

     Dynamical RAM for          <psi|beta>:       0.18 MB

     Dynamical RAM for                 psi:       2.01 MB

     Dynamical RAM for                hpsi:       2.01 MB

     Dynamical RAM for                spsi:       2.01 MB

     Dynamical RAM for      wfcinit/wfcrot:       5.00 MB

     Dynamical RAM for           addusdens:      29.53 MB

     Dynamical RAM for          addusforce:      30.78 MB

     Dynamical RAM for         addusstress:      30.99 MB

     Estimated static dynamical RAM per process >      70.56 MB

     Estimated max dynamical RAM per process >     106.47 MB

     Estimated total dynamical RAM >       2.03 GB

     Check: negative core charge=   -0.000003

     Initial potential from superposition of free atoms

     starting charge     122.9551, renormalised to     123.0000
     Starting wfcs are  162 randomized atomic wfcs
     Checking if some PAW data can be deallocated... 
       PAW data deallocated on   17 nodes for type:  1
       PAW data deallocated on   13 nodes for type:  2
       PAW data deallocated on   10 nodes for type:  3

     total cpu time spent up to now is       16.2 secs

     Self-consistent Calculation

     iteration #  1     ecut=    45.00 Ry     beta= 0.60
     Davidson diagonalization with overlap

---- Real-time Memory Report at c_bands before calling an iterative solver
           208 MiB given to the printing process from OS
             0 MiB allocation reported by mallinfo(arena+hblkhd)
        249625 MiB available memory on the node where the printing process lives
------------------
     ethr =  1.00E-02,  avg # of iterations =  2.0

     total cpu time spent up to now is       26.9 secs

     total energy              =   -3434.33267824 Ry
     estimated scf accuracy    <       4.10466654 Ry

     iteration #  2     ecut=    45.00 Ry     beta= 0.60
     Davidson diagonalization with overlap

---- Real-time Memory Report at c_bands before calling an iterative solver
           236 MiB given to the printing process from OS
             0 MiB allocation reported by mallinfo(arena+hblkhd)
        249145 MiB available memory on the node where the printing process lives
------------------
     ethr =  3.34E-03,  avg # of iterations =  8.9

     total cpu time spent up to now is       50.5 secs

     total energy              =   -3429.61252407 Ry
     estimated scf accuracy    <     111.96226459 Ry

     iteration #  3     ecut=    45.00 Ry     beta= 0.60
     Davidson diagonalization with overlap

---- Real-time Memory Report at c_bands before calling an iterative solver
           254 MiB given to the printing process from OS
             0 MiB allocation reported by mallinfo(arena+hblkhd)
        249108 MiB available memory on the node where the printing process lives
------------------
     ethr =  3.34E-03,  avg # of iterations =  8.8

     total cpu time spent up to now is       72.1 secs

     total energy              =   -3436.97019441 Ry
     estimated scf accuracy    <       3.94578159 Ry

     iteration #  4     ecut=    45.00 Ry     beta= 0.60
     Davidson diagonalization with overlap

---- Real-time Memory Report at c_bands before calling an iterative solver
           256 MiB given to the printing process from OS
             0 MiB allocation reported by mallinfo(arena+hblkhd)
        249106 MiB available memory on the node where the printing process lives
------------------
     ethr =  3.21E-03,  avg # of iterations =  2.4

     total cpu time spent up to now is       83.5 secs

     total energy              =   -3437.17193930 Ry
     estimated scf accuracy    <       0.41923428 Ry

     iteration #  5     ecut=    45.00 Ry     beta= 0.60
     Davidson diagonalization with overlap

---- Real-time Memory Report at c_bands before calling an iterative solver
           260 MiB given to the printing process from OS
             0 MiB allocation reported by mallinfo(arena+hblkhd)
        249104 MiB available memory on the node where the printing process lives
------------------
     ethr =  3.41E-04,  avg # of iterations =  7.8

     total cpu time spent up to now is      101.4 secs

     total energy              =   -3437.14943889 Ry
     estimated scf accuracy    <       0.73205389 Ry

     iteration #  6     ecut=    45.00 Ry     beta= 0.60
     Davidson diagonalization with overlap

---- Real-time Memory Report at c_bands before calling an iterative solver
           262 MiB given to the printing process from OS
             0 MiB allocation reported by mallinfo(arena+hblkhd)
        249099 MiB available memory on the node where the printing process lives
------------------
     ethr =  3.41E-04,  avg # of iterations =  3.8

     total cpu time spent up to now is      113.8 secs

     total energy              =   -3437.19904253 Ry
     estimated scf accuracy    <       0.17480486 Ry

     iteration #  7     ecut=    45.00 Ry     beta= 0.60
     Davidson diagonalization with overlap

---- Real-time Memory Report at c_bands before calling an iterative solver
           265 MiB given to the printing process from OS
             0 MiB allocation reported by mallinfo(arena+hblkhd)
        249098 MiB available memory on the node where the printing process lives
------------------
     ethr =  1.42E-04,  avg # of iterations =  2.8

     total cpu time spent up to now is      125.2 secs

     total energy              =   -3437.21348755 Ry
     estimated scf accuracy    <       0.05636020 Ry

     iteration #  8     ecut=    45.00 Ry     beta= 0.60
     Davidson diagonalization with overlap

---- Real-time Memory Report at c_bands before calling an iterative solver
           267 MiB given to the printing process from OS
             0 MiB allocation reported by mallinfo(arena+hblkhd)
        249094 MiB available memory on the node where the printing process lives
------------------
     ethr =  4.58E-05,  avg # of iterations =  4.1

     total cpu time spent up to now is      138.1 secs

     total energy              =   -3437.21321346 Ry
     estimated scf accuracy    <       0.01436765 Ry

     iteration #  9     ecut=    45.00 Ry     beta= 0.60
     Davidson diagonalization with overlap

---- Real-time Memory Report at c_bands before calling an iterative solver
           269 MiB given to the printing process from OS
             0 MiB allocation reported by mallinfo(arena+hblkhd)
        249094 MiB available memory on the node where the printing process lives
------------------
     ethr =  1.17E-05,  avg # of iterations =  8.1

     total cpu time spent up to now is      155.1 secs

     total energy              =   -3437.21464784 Ry
     estimated scf accuracy    <       0.00035487 Ry

     iteration # 10     ecut=    45.00 Ry     beta= 0.60
     Davidson diagonalization with overlap

---- Real-time Memory Report at c_bands before calling an iterative solver
           271 MiB given to the printing process from OS
             0 MiB allocation reported by mallinfo(arena+hblkhd)
        249092 MiB available memory on the node where the printing process lives
------------------
     c_bands:  1 eigenvalues not converged
     ethr =  2.89E-07,  avg # of iterations =  7.6

     total cpu time spent up to now is      174.0 secs

     total energy              =   -3437.21479040 Ry
     estimated scf accuracy    <       0.00021069 Ry

     iteration # 11     ecut=    45.00 Ry     beta= 0.60
     Davidson diagonalization with overlap

---- Real-time Memory Report at c_bands before calling an iterative solver
           273 MiB given to the printing process from OS
             0 MiB allocation reported by mallinfo(arena+hblkhd)
        249088 MiB available memory on the node where the printing process lives
------------------
     ethr =  1.71E-07,  avg # of iterations =  2.0

     total cpu time spent up to now is      185.0 secs

     total energy              =   -3437.21478024 Ry
     estimated scf accuracy    <       0.00005802 Ry

     iteration # 12     ecut=    45.00 Ry     beta= 0.60
     Davidson diagonalization with overlap

---- Real-time Memory Report at c_bands before calling an iterative solver
           275 MiB given to the printing process from OS
             0 MiB allocation reported by mallinfo(arena+hblkhd)
        249087 MiB available memory on the node where the printing process lives
------------------
     ethr =  4.72E-08,  avg # of iterations =  3.8

     total cpu time spent up to now is      198.0 secs

     total energy              =   -3437.21479221 Ry
     estimated scf accuracy    <       0.00000120 Ry

     iteration # 13     ecut=    45.00 Ry     beta= 0.60
     Davidson diagonalization with overlap

---- Real-time Memory Report at c_bands before calling an iterative solver
           276 MiB given to the printing process from OS
             0 MiB allocation reported by mallinfo(arena+hblkhd)
        249087 MiB available memory on the node where the printing process lives
------------------
     ethr =  9.76E-10,  avg # of iterations =  4.8

     total cpu time spent up to now is      213.3 secs

     total energy              =   -3437.21479273 Ry
     estimated scf accuracy    <       0.00000054 Ry

     iteration # 14     ecut=    45.00 Ry     beta= 0.60
     Davidson diagonalization with overlap

---- Real-time Memory Report at c_bands before calling an iterative solver
           278 MiB given to the printing process from OS
             0 MiB allocation reported by mallinfo(arena+hblkhd)
        249087 MiB available memory on the node where the printing process lives
------------------
     ethr =  4.41E-10,  avg # of iterations =  2.4

     total cpu time spent up to now is      225.0 secs

     total energy              =   -3437.21479280 Ry
     estimated scf accuracy    <          8.1E-09 Ry

     iteration # 15     ecut=    45.00 Ry     beta= 0.60
     Davidson diagonalization with overlap

---- Real-time Memory Report at c_bands before calling an iterative solver
           280 MiB given to the printing process from OS
             0 MiB allocation reported by mallinfo(arena+hblkhd)
        249087 MiB available memory on the node where the printing process lives
------------------
     ethr =  6.62E-12,  avg # of iterations =  6.1

     total cpu time spent up to now is      245.2 secs

     total energy              =   -3437.21479281 Ry
     estimated scf accuracy    <          3.1E-09 Ry

     iteration # 16     ecut=    45.00 Ry     beta= 0.60
     Davidson diagonalization with overlap

---- Real-time Memory Report at c_bands before calling an iterative solver
           281 MiB given to the printing process from OS
             0 MiB allocation reported by mallinfo(arena+hblkhd)
        249087 MiB available memory on the node where the printing process lives
------------------
     ethr =  2.53E-12,  avg # of iterations =  4.0

     total cpu time spent up to now is      258.8 secs

     total energy              =   -3437.21479281 Ry
     estimated scf accuracy    <          2.3E-09 Ry

     iteration # 17     ecut=    45.00 Ry     beta= 0.60
     Davidson diagonalization with overlap

---- Real-time Memory Report at c_bands before calling an iterative solver
           282 MiB given to the printing process from OS
             0 MiB allocation reported by mallinfo(arena+hblkhd)
        249087 MiB available memory on the node where the printing process lives
------------------
     ethr =  1.91E-12,  avg # of iterations =  1.9

     total cpu time spent up to now is      269.6 secs

     total energy              =   -3437.21479281 Ry
     estimated scf accuracy    <          1.5E-10 Ry

     iteration # 18     ecut=    45.00 Ry     beta= 0.60
     Davidson diagonalization with overlap

---- Real-time Memory Report at c_bands before calling an iterative solver
           284 MiB given to the printing process from OS
             0 MiB allocation reported by mallinfo(arena+hblkhd)
        249087 MiB available memory on the node where the printing process lives
------------------
     ethr =  1.19E-13,  avg # of iterations =  4.3

     total cpu time spent up to now is      284.0 secs

     total energy              =   -3437.21479281 Ry
     estimated scf accuracy    <          1.4E-11 Ry

     iteration # 19     ecut=    45.00 Ry     beta= 0.60
     Davidson diagonalization with overlap

---- Real-time Memory Report at c_bands before calling an iterative solver
           285 MiB given to the printing process from OS
             0 MiB allocation reported by mallinfo(arena+hblkhd)
        249087 MiB available memory on the node where the printing process lives
------------------
     ethr =  1.00E-13,  avg # of iterations =  1.0

     total cpu time spent up to now is      293.7 secs

     End of self-consistent calculation

          k = 0.0000 0.0000 0.0000 (  8931 PWs)   bands (ev):

   -54.5806 -54.5160 -54.5160 -28.5593 -28.5491 -28.5218 -28.5218 -28.4953
   -28.4953 -28.3018 -28.0869 -28.0869 -19.4619 -19.3902 -19.3902 -19.2930
   -19.2929 -19.1820 -19.1820 -19.1807 -19.1807 -19.1361 -19.1360 -19.1359
   -19.1359 -19.0632 -19.0632 -19.0583 -19.0583 -19.0356 -19.0356 -19.0333
   -19.0333 -19.0329 -19.0294 -18.9789 -18.9757 -12.9721  -1.7954  -1.0494
     0.2507   0.2507   0.2871   0.3524   2.1825   2.4888   5.2374   5.9240
     5.9241   6.8419   6.8419   6.8639   6.8639   6.9547   7.7283   7.7689
     7.7689   7.9609   8.2274   8.2274   8.8045   9.3679  10.6604  10.6604
    10.7141  10.7951  10.7951  11.0675  11.1477  11.1477  11.2236  11.2237
    11.3555  11.3555

     occupation numbers 
     1.0000   1.0000   1.0000   1.0000   1.0000   1.0000   1.0000   1.0000
     1.0000   1.0000   1.0000   1.0000   1.0000   1.0000   1.0000   1.0000
     1.0000   1.0000   1.0000   1.0000   1.0000   1.0000   1.0000   1.0000
     1.0000   1.0000   1.0000   1.0000   1.0000   1.0000   1.0000   1.0000
     1.0000   1.0000   1.0000   1.0000   1.0000   1.0000   1.0000   1.0000
     1.0000   1.0000   1.0000   1.0000   1.0000   1.0000   1.0000   1.0000
     1.0000   1.0000   1.0000   1.0000   1.0000   1.0000   1.0000   1.0000
     1.0000   1.0000   1.0000   1.0000   1.0000   0.9919   0.0000   0.0000
     0.0000   0.0000   0.0000   0.0000   0.0000   0.0000   0.0000   0.0000
     0.0000   0.0000

          k = 0.0000 0.0000 0.0930 (  8866 PWs)   bands (ev):

   -54.5806 -54.5160 -54.5160 -28.5593 -28.5491 -28.5218 -28.5218 -28.4953
   -28.4953 -28.3018 -28.0869 -28.0869 -19.4619 -19.3902 -19.3902 -19.2929
   -19.2929 -19.1820 -19.1820 -19.1807 -19.1807 -19.1361 -19.1360 -19.1359
   -19.1359 -19.0632 -19.0632 -19.0583 -19.0583 -19.0356 -19.0356 -19.0333
   -19.0333 -19.0329 -19.0294 -18.9790 -18.9757 -12.9720  -1.8057  -1.0199
     0.1853   0.2508   0.2508   0.4315   2.1787   2.4938   5.2920   5.9304
     5.9305   6.8279   6.8280   6.8339   6.8604   6.8604   7.6953   7.7773
     7.7773   8.0412   8.2297   8.2297   8.8567   9.2875  10.6673  10.6673
    10.7141  10.7961  10.7961  11.0606  11.0606  11.1281  11.1961  11.1962
    11.5286  11.5286

     occupation numbers 
     1.0000   1.0000   1.0000   1.0000   1.0000   1.0000   1.0000   1.0000
     1.0000   1.0000   1.0000   1.0000   1.0000   1.0000   1.0000   1.0000
     1.0000   1.0000   1.0000   1.0000   1.0000   1.0000   1.0000   1.0000
     1.0000   1.0000   1.0000   1.0000   1.0000   1.0000   1.0000   1.0000
     1.0000   1.0000   1.0000   1.0000   1.0000   1.0000   1.0000   1.0000
     1.0000   1.0000   1.0000   1.0000   1.0000   1.0000   1.0000   1.0000
     1.0000   1.0000   1.0000   1.0000   1.0000   1.0000   1.0000   1.0000
     1.0000   1.0000   1.0000   1.0000   1.0000   0.9976   0.0000   0.0000
     0.0000   0.0000   0.0000   0.0000   0.0000   0.0000   0.0000   0.0000
     0.0000   0.0000

          k = 0.0000 0.0000 0.1860 (  8848 PWs)   bands (ev):

   -54.5806 -54.5160 -54.5160 -28.5593 -28.5491 -28.5218 -28.5218 -28.4953
   -28.4953 -28.3018 -28.0869 -28.0869 -19.4619 -19.3902 -19.3902 -19.2929
   -19.2929 -19.1820 -19.1820 -19.1807 -19.1807 -19.1361 -19.1360 -19.1359
   -19.1359 -19.0632 -19.0632 -19.0583 -19.0583 -19.0356 -19.0356 -19.0333
   -19.0333 -19.0329 -19.0295 -18.9790 -18.9757 -12.9720  -1.8249  -0.9584
     0.0697   0.2509   0.2509   0.4973   2.1713   2.5034   5.4217   5.9438
     5.9438   6.6001   6.7998   6.7998   6.8537   6.8537   7.6360   7.7942
     7.7942   8.1819   8.2340   8.2340   8.9556   9.1336  10.6785  10.6785
    10.7141  10.8007  10.8007  10.9043  10.9043  11.2194  11.3095  11.3095
    11.7028  11.7028

     occupation numbers 
     1.0000   1.0000   1.0000   1.0000   1.0000   1.0000   1.0000   1.0000
     1.0000   1.0000   1.0000   1.0000   1.0000   1.0000   1.0000   1.0000
     1.0000   1.0000   1.0000   1.0000   1.0000   1.0000   1.0000   1.0000
     1.0000   1.0000   1.0000   1.0000   1.0000   1.0000   1.0000   1.0000
     1.0000   1.0000   1.0000   1.0000   1.0000   1.0000   1.0000   1.0000
     1.0000   1.0000   1.0000   1.0000   1.0000   1.0000   1.0000   1.0000
     1.0000   1.0000   1.0000   1.0000   1.0000   1.0000   1.0000   1.0000
     1.0000   1.0000   1.0000   1.0000   1.0000   0.9999   0.0000   0.0000
     0.0000   0.0000   0.0000   0.0000   0.0000   0.0000   0.0000   0.0000
     0.0000   0.0000

          k = 0.0000 0.0000-0.2790 (  8920 PWs)   bands (ev):

   -54.5806 -54.5160 -54.5160 -28.5593 -28.5491 -28.5218 -28.5218 -28.4953
   -28.4953 -28.3018 -28.0869 -28.0869 -19.4619 -19.3902 -19.3902 -19.2930
   -19.2929 -19.1820 -19.1820 -19.1807 -19.1807 -19.1361 -19.1360 -19.1359
   -19.1359 -19.0632 -19.0632 -19.0583 -19.0583 -19.0356 -19.0356 -19.0333
   -19.0333 -19.0329 -19.0295 -18.9790 -18.9757 -12.9721  -1.8339  -0.9258
     0.0197   0.2507   0.2507   0.5198   2.1678   2.5080   5.5034   5.9507
     5.9507   6.4751   6.7855   6.7855   6.8504   6.8504   7.6090   7.8027
     7.8027   8.2361   8.2361   8.2497   9.0031   9.0561  10.6831  10.6831
    10.7141  10.8142  10.8142  10.8351  10.8352  11.2537  11.3768  11.3769
    11.7702  11.7702

     occupation numbers 
     1.0000   1.0000   1.0000   1.0000   1.0000   1.0000   1.0000   1.0000
     1.0000   1.0000   1.0000   1.0000   1.0000   1.0000   1.0000   1.0000
     1.0000   1.0000   1.0000   1.0000   1.0000   1.0000   1.0000   1.0000
     1.0000   1.0000   1.0000   1.0000   1.0000   1.0000   1.0000   1.0000
     1.0000   1.0000   1.0000   1.0000   1.0000   1.0000   1.0000   1.0000
     1.0000   1.0000   1.0000   1.0000   1.0000   1.0000   1.0000   1.0000
     1.0000   1.0000   1.0000   1.0000   1.0000   1.0000   1.0000   1.0000
     1.0000   1.0000   1.0000   1.0000   1.0000   1.0000   0.0000   0.0000
     0.0000   0.0000   0.0000   0.0000   0.0000   0.0000   0.0000   0.0000
     0.0000   0.0000

          k = 0.0000 0.1283 0.0000 (  8869 PWs)   bands (ev):

   -54.5789 -54.5177 -54.5160 -28.5576 -28.5390 -28.5195 -28.5148 -28.4970
   -28.4953 -28.3070 -28.1004 -28.0892 -19.4614 -19.3902 -19.3901 -19.2925
   -19.2918 -19.1850 -19.1837 -19.1829 -19.1818 -19.1364 -19.1362 -19.1330
   -19.1328 -19.0635 -19.0625 -19.0585 -19.0578 -19.0361 -19.0353 -19.0342
   -19.0330 -19.0304 -19.0272 -18.9798 -18.9768 -12.9715  -1.7224  -0.9892
     0.1823   0.2470   0.3470   0.3602   2.0433   2.2589   5.2316   5.7307
     5.9824   6.6623   6.6649   6.9919   7.0212   7.0324   7.6646   7.9616
     7.9917   8.0251   8.1828   8.2801   8.6632   9.6562  10.6083  10.6600
    10.6844  10.7490  10.7842  10.8687  11.0215  11.1827  11.3728  11.4627
    11.4772  11.5086

     occupation numbers 
     1.0000   1.0000   1.0000   1.0000   1.0000   1.0000   1.0000   1.0000
     1.0000   1.0000   1.0000   1.0000   1.0000   1.0000   1.0000   1.0000
     1.0000   1.0000   1.0000   1.0000   1.0000   1.0000   1.0000   1.0000
     1.0000   1.0000   1.0000   1.0000   1.0000   1.0000   1.0000   1.0000
     1.0000   1.0000   1.0000   1.0000   1.0000   1.0000   1.0000   1.0000
     1.0000   1.0000   1.0000   1.0000   1.0000   1.0000   1.0000   1.0000
     1.0000   1.0000   1.0000   1.0000   1.0000   1.0000   1.0000   1.0000
     1.0000   1.0000   1.0000   1.0000   1.0000   0.8176   0.0000   0.0000
     0.0000   0.0000   0.0000   0.0000   0.0000   0.0000   0.0000   0.0000
     0.0000   0.0000

          k = 0.0000 0.1283 0.0930 (  8884 PWs)   bands (ev):

   -54.5789 -54.5177 -54.5160 -28.5576 -28.5390 -28.5195 -28.5148 -28.4970
   -28.4953 -28.3070 -28.1004 -28.0892 -19.4614 -19.3902 -19.3901 -19.2925
   -19.2918 -19.1850 -19.1837 -19.1829 -19.1818 -19.1364 -19.1362 -19.1330
   -19.1328 -19.0635 -19.0625 -19.0585 -19.0578 -19.0361 -19.0353 -19.0342
   -19.0330 -19.0304 -19.0272 -18.9798 -18.9768 -12.9715  -1.7319  -0.9626
     0.1534   0.2470   0.2802   0.4349   2.0391   2.2640   5.2824   5.7325
     5.9842   6.6505   6.6593   6.8918   7.0232   7.0396   7.6231   7.9283
     7.9929   8.1117   8.1899   8.2797   8.7145   9.5932  10.5950  10.6585
    10.6859  10.7443  10.7857  10.8391  10.9810  11.2341  11.4307  11.4478
    11.5363  11.6568

     occupation numbers 
     1.0000   1.0000   1.0000   1.0000   1.0000   1.0000   1.0000   1.0000
     1.0000   1.0000   1.0000   1.0000   1.0000   1.0000   1.0000   1.0000
     1.0000   1.0000   1.0000   1.0000   1.0000   1.0000   1.0000   1.0000
     1.0000   1.0000   1.0000   1.0000   1.0000   1.0000   1.0000   1.0000
     1.0000   1.0000   1.0000   1.0000   1.0000   1.0000   1.0000   1.0000
     1.0000   1.0000   1.0000   1.0000   1.0000   1.0000   1.0000   1.0000
     1.0000   1.0000   1.0000   1.0000   1.0000   1.0000   1.0000   1.0000
     1.0000   1.0000   1.0000   1.0000   1.0000   0.8913   0.0000   0.0000
     0.0000   0.0000   0.0000   0.0000   0.0000   0.0000   0.0000   0.0000
     0.0000   0.0000

          k = 0.0000 0.1283 0.1860 (  8881 PWs)   bands (ev):

   -54.5789 -54.5177 -54.5160 -28.5576 -28.5390 -28.5195 -28.5148 -28.4970
   -28.4953 -28.3070 -28.1004 -28.0892 -19.4614 -19.3902 -19.3901 -19.2925
   -19.2918 -19.1850 -19.1837 -19.1829 -19.1818 -19.1364 -19.1362 -19.1330
   -19.1328 -19.0635 -19.0625 -19.0585 -19.0578 -19.0361 -19.0354 -19.0342
   -19.0330 -19.0303 -19.0272 -18.9799 -18.9767 -12.9715  -1.7495  -0.9075
     0.0806   0.2471   0.2541   0.4887   2.0312   2.2737   5.4001   5.7360
     5.9889   6.5924   6.6484   6.7314   7.0264   7.0443   7.5682   7.8839
     7.9964   8.1958   8.2369   8.2783   8.8131   9.4834  10.5582  10.6570
    10.6746  10.7430  10.7930  10.7948  10.9143  11.3409  11.4867  11.5719
    11.6709  11.8102

     occupation numbers 
     1.0000   1.0000   1.0000   1.0000   1.0000   1.0000   1.0000   1.0000
     1.0000   1.0000   1.0000   1.0000   1.0000   1.0000   1.0000   1.0000
     1.0000   1.0000   1.0000   1.0000   1.0000   1.0000   1.0000   1.0000
     1.0000   1.0000   1.0000   1.0000   1.0000   1.0000   1.0000   1.0000
     1.0000   1.0000   1.0000   1.0000   1.0000   1.0000   1.0000   1.0000
     1.0000   1.0000   1.0000   1.0000   1.0000   1.0000   1.0000   1.0000
     1.0000   1.0000   1.0000   1.0000   1.0000   1.0000   1.0000   1.0000
     1.0000   1.0000   1.0000   1.0000   1.0000   0.9644   0.0001   0.0000
     0.0000   0.0000   0.0000   0.0000   0.0000   0.0000   0.0000   0.0000
     0.0000   0.0000

          k = 0.0000 0.1283-0.2790 (  8882 PWs)   bands (ev):

   -54.5789 -54.5177 -54.5160 -28.5576 -28.5390 -28.5195 -28.5148 -28.4970
   -28.4953 -28.3070 -28.1004 -28.0892 -19.4614 -19.3902 -19.3901 -19.2925
   -19.2918 -19.1850 -19.1837 -19.1829 -19.1818 -19.1364 -19.1362 -19.1330
   -19.1328 -19.0634 -19.0625 -19.0586 -19.0578 -19.0361 -19.0354 -19.0342
   -19.0330 -19.0303 -19.0273 -18.9799 -18.9767 -12.9715  -1.7578  -0.8785
     0.0424   0.2471   0.2496   0.5071   2.0275   2.2783   5.4712   5.7377
     5.9926   6.5154   6.6432   6.6912   7.0276   7.0460   7.5471   7.8654
     7.9986   8.1990   8.2773   8.2876   8.8610   9.4340  10.5361  10.6573
    10.6619  10.7449  10.7787  10.7989  10.8884  11.4020  11.5347  11.6217
    11.7349  11.8711

     occupation numbers 
     1.0000   1.0000   1.0000   1.0000   1.0000   1.0000   1.0000   1.0000
     1.0000   1.0000   1.0000   1.0000   1.0000   1.0000   1.0000   1.0000
     1.0000   1.0000   1.0000   1.0000   1.0000   1.0000   1.0000   1.0000
     1.0000   1.0000   1.0000   1.0000   1.0000   1.0000   1.0000   1.0000
     1.0000   1.0000   1.0000   1.0000   1.0000   1.0000   1.0000   1.0000
     1.0000   1.0000   1.0000   1.0000   1.0000   1.0000   1.0000   1.0000
     1.0000   1.0000   1.0000   1.0000   1.0000   1.0000   1.0000   1.0000
     1.0000   1.0000   1.0000   1.0000   1.0000   0.9803   0.0001   0.0000
     0.0000   0.0000   0.0000   0.0000   0.0000   0.0000   0.0000   0.0000
     0.0000   0.0000

          k = 0.0000 0.2566 0.0000 (  8879 PWs)   bands (ev):

   -54.5740 -54.5226 -54.5160 -28.5528 -28.5291 -28.5019 -28.4953 -28.4949
   -28.4937 -28.3227 -28.1388 -28.0948 -19.4601 -19.3901 -19.3898 -19.2913
   -19.2889 -19.1913 -19.1900 -19.1853 -19.1844 -19.1371 -19.1370 -19.1265
   -19.1263 -19.0641 -19.0607 -19.0591 -19.0564 -19.0376 -19.0362 -19.0347
   -19.0324 -19.0240 -19.0212 -18.9823 -18.9799 -12.9702  -1.5082  -0.8126
     0.1058   0.2375   0.3279   0.4305   1.6860   1.7371   5.1658   5.4059
     6.1869   6.3236   6.3733   7.1266   7.1914   7.3279   7.5029   8.0046
     8.1975   8.4166   8.4466   8.4765   8.4893  10.2312  10.2520  10.4662
    10.6142  10.7739  10.7871  10.7958  10.9808  11.2828  11.6979  11.7690
    11.8165  11.8440

     occupation numbers 
     1.0000   1.0000   1.0000   1.0000   1.0000   1.0000   1.0000   1.0000
     1.0000   1.0000   1.0000   1.0000   1.0000   1.0000   1.0000   1.0000
     1.0000   1.0000   1.0000   1.0000   1.0000   1.0000   1.0000   1.0000
     1.0000   1.0000   1.0000   1.0000   1.0000   1.0000   1.0000   1.0000
     1.0000   1.0000   1.0000   1.0000   1.0000   1.0000   1.0000   1.0000
     1.0000   1.0000   1.0000   1.0000   1.0000   1.0000   1.0000   1.0000
     1.0000   1.0000   1.0000   1.0000   1.0000   1.0000   1.0000   1.0000
     1.0000   1.0000   1.0000   1.0000   1.0000   0.0187   0.0143   0.0005
     0.0000   0.0000   0.0000   0.0000   0.0000   0.0000   0.0000   0.0000
     0.0000   0.0000

          k = 0.0000 0.2566 0.0930 (  8881 PWs)   bands (ev):

   -54.5740 -54.5226 -54.5160 -28.5528 -28.5291 -28.5019 -28.4953 -28.4949
   -28.4937 -28.3227 -28.1388 -28.0948 -19.4601 -19.3901 -19.3898 -19.2913
   -19.2889 -19.1913 -19.1900 -19.1853 -19.1844 -19.1371 -19.1370 -19.1265
   -19.1263 -19.0641 -19.0607 -19.0591 -19.0564 -19.0376 -19.0362 -19.0347
   -19.0324 -19.0240 -19.0212 -18.9823 -18.9799 -12.9702  -1.5147  -0.7959
     0.1051   0.2375   0.3054   0.4397   1.6816   1.7426   5.2030   5.4024
     6.1885   6.3254   6.3788   7.0267   7.1943   7.3440   7.4523   8.0323
     8.2546   8.4127   8.4200   8.4863   8.5171  10.1446  10.3147  10.4680
    10.6032  10.7735  10.7833  10.7956  10.9540  11.3237  11.6729  11.7699
    11.9203  11.9725

     occupation numbers 
     1.0000   1.0000   1.0000   1.0000   1.0000   1.0000   1.0000   1.0000
     1.0000   1.0000   1.0000   1.0000   1.0000   1.0000   1.0000   1.0000
     1.0000   1.0000   1.0000   1.0000   1.0000   1.0000   1.0000   1.0000
     1.0000   1.0000   1.0000   1.0000   1.0000   1.0000   1.0000   1.0000
     1.0000   1.0000   1.0000   1.0000   1.0000   1.0000   1.0000   1.0000
     1.0000   1.0000   1.0000   1.0000   1.0000   1.0000   1.0000   1.0000
     1.0000   1.0000   1.0000   1.0000   1.0000   1.0000   1.0000   1.0000
     1.0000   1.0000   1.0000   1.0000   1.0000   0.0513   0.0059   0.0005
     0.0000   0.0000   0.0000   0.0000   0.0000   0.0000   0.0000   0.0000
     0.0000   0.0000

          k = 0.0000 0.2566 0.1860 (  8901 PWs)   bands (ev):

   -54.5740 -54.5226 -54.5160 -28.5528 -28.5291 -28.5019 -28.4953 -28.4949
   -28.4937 -28.3227 -28.1388 -28.0948 -19.4601 -19.3901 -19.3898 -19.2913
   -19.2889 -19.1913 -19.1900 -19.1853 -19.1844 -19.1371 -19.1369 -19.1265
   -19.1263 -19.0641 -19.0607 -19.0591 -19.0564 -19.0376 -19.0362 -19.0347
   -19.0324 -19.0240 -19.0213 -18.9824 -18.9799 -12.9702  -1.5272  -0.7621
     0.1017   0.2375   0.2689   0.4504   1.6746   1.7517   5.2847   5.3956
     6.1970   6.3281   6.3895   6.8404   7.2001   7.3586   7.3743   8.0798
     8.3476   8.3893   8.4055   8.4798   8.5765  10.0810  10.3283  10.4727
    10.5842  10.7566  10.7697  10.7929  10.9277  11.4311  11.7016  11.7905
    12.1125  12.1426

     occupation numbers 
     1.0000   1.0000   1.0000   1.0000   1.0000   1.0000   1.0000   1.0000
     1.0000   1.0000   1.0000   1.0000   1.0000   1.0000   1.0000   1.0000
     1.0000   1.0000   1.0000   1.0000   1.0000   1.0000   1.0000   1.0000
     1.0000   1.0000   1.0000   1.0000   1.0000   1.0000   1.0000   1.0000
     1.0000   1.0000   1.0000   1.0000   1.0000   1.0000   1.0000   1.0000
     1.0000   1.0000   1.0000   1.0000   1.0000   1.0000   1.0000   1.0000
     1.0000   1.0000   1.0000   1.0000   1.0000   1.0000   1.0000   1.0000
     1.0000   1.0000   1.0000   1.0000   1.0000   0.0965   0.0048   0.0004
     0.0000   0.0000   0.0000   0.0000   0.0000   0.0000   0.0000   0.0000
     0.0000   0.0000

          k = 0.0000 0.2566-0.2790 (  8914 PWs)   bands (ev):

   -54.5740 -54.5226 -54.5160 -28.5528 -28.5291 -28.5019 -28.4953 -28.4949
   -28.4937 -28.3227 -28.1388 -28.0948 -19.4601 -19.3901 -19.3898 -19.2913
   -19.2889 -19.1913 -19.1900 -19.1853 -19.1844 -19.1371 -19.1369 -19.1265
   -19.1263 -19.0641 -19.0607 -19.0591 -19.0564 -19.0376 -19.0362 -19.0347
   -19.0324 -19.0239 -19.0213 -18.9824 -18.9799 -12.9702  -1.5331  -0.7448
     0.0986   0.2376   0.2534   0.4538   1.6717   1.7557   5.3301   5.3923
     6.2057   6.3288   6.3949   6.7450   7.2030   7.3418   7.3633   8.1011
     8.3729   8.3897   8.4022   8.4763   8.6049  10.0627  10.3205  10.4759
    10.5756  10.7337  10.7676  10.7923  10.9254  11.5163  11.7233  11.8152
    12.0570  12.1659

     occupation numbers 
     1.0000   1.0000   1.0000   1.0000   1.0000   1.0000   1.0000   1.0000
     1.0000   1.0000   1.0000   1.0000   1.0000   1.0000   1.0000   1.0000
     1.0000   1.0000   1.0000   1.0000   1.0000   1.0000   1.0000   1.0000
     1.0000   1.0000   1.0000   1.0000   1.0000   1.0000   1.0000   1.0000
     1.0000   1.0000   1.0000   1.0000   1.0000   1.0000   1.0000   1.0000
     1.0000   1.0000   1.0000   1.0000   1.0000   1.0000   1.0000   1.0000
     1.0000   1.0000   1.0000   1.0000   1.0000   1.0000   1.0000   1.0000
     1.0000   1.0000   1.0000   1.0000   1.0000   0.1139   0.0054   0.0004
     0.0001   0.0000   0.0000   0.0000   0.0000   0.0000   0.0000   0.0000
     0.0000   0.0000

          k = 0.0000 0.3849 0.0000 (  8895 PWs)   bands (ev):

   -54.5670 -54.5297 -54.5160 -28.5459 -28.5287 -28.5089 -28.4953 -28.4651
   -28.4404 -28.3478 -28.1957 -28.1009 -19.4587 -19.3900 -19.3895 -19.2899
   -19.2856 -19.1972 -19.1959 -19.1879 -19.1873 -19.1377 -19.1376 -19.1204
   -19.1201 -19.0648 -19.0598 -19.0581 -19.0546 -19.0395 -19.0390 -19.0341
   -19.0318 -19.0158 -19.0136 -18.9863 -18.9847 -12.9687  -1.1702  -0.5354
     0.0118   0.2266   0.2803   0.4242   1.2205   1.2491   5.0914   5.1453
     6.0603   6.1423   6.4672   7.2157   7.2420   7.2795   7.3791   7.8349
     8.4241   8.5052   8.8189   8.8606   9.0664   9.9878  10.1715  10.4028
    10.6940  10.7252  10.7936  10.9061  10.9864  11.4000  11.9739  12.0749
    12.1481  12.4266

     occupation numbers 
     1.0000   1.0000   1.0000   1.0000   1.0000   1.0000   1.0000   1.0000
     1.0000   1.0000   1.0000   1.0000   1.0000   1.0000   1.0000   1.0000
     1.0000   1.0000   1.0000   1.0000   1.0000   1.0000   1.0000   1.0000
     1.0000   1.0000   1.0000   1.0000   1.0000   1.0000   1.0000   1.0000
     1.0000   1.0000   1.0000   1.0000   1.0000   1.0000   1.0000   1.0000
     1.0000   1.0000   1.0000   1.0000   1.0000   1.0000   1.0000   1.0000
     1.0000   1.0000   1.0000   1.0000   1.0000   1.0000   1.0000   1.0000
     1.0000   1.0000   1.0000   1.0000   1.0000   0.2069   0.0382   0.0015
     0.0000   0.0000   0.0000   0.0000   0.0000   0.0000   0.0000   0.0000
     0.0000   0.0000

          k = 0.0000 0.3849 0.0930 (  8907 PWs)   bands (ev):

   -54.5670 -54.5297 -54.5160 -28.5459 -28.5287 -28.5089 -28.4953 -28.4651
   -28.4404 -28.3478 -28.1957 -28.1009 -19.4587 -19.3900 -19.3895 -19.2899
   -19.2856 -19.1972 -19.1959 -19.1879 -19.1873 -19.1377 -19.1376 -19.1204
   -19.1201 -19.0648 -19.0598 -19.0581 -19.0546 -19.0395 -19.0390 -19.0341
   -19.0318 -19.0158 -19.0136 -18.9863 -18.9847 -12.9687  -1.1705  -0.5420
     0.0417   0.2266   0.2717   0.4051   1.2225   1.2514   5.1085   5.1386
     6.0519   6.1551   6.4767   7.1326   7.2138   7.3330   7.3531   7.8776
     8.4555   8.5129   8.8174   8.8571   9.0461  10.0221  10.1748  10.3807
    10.6834  10.7170  10.7933  10.8965  10.9646  11.4395  11.8480  11.9738
    12.3879  12.4826

     occupation numbers 
     1.0000   1.0000   1.0000   1.0000   1.0000   1.0000   1.0000   1.0000
     1.0000   1.0000   1.0000   1.0000   1.0000   1.0000   1.0000   1.0000
     1.0000   1.0000   1.0000   1.0000   1.0000   1.0000   1.0000   1.0000
     1.0000   1.0000   1.0000   1.0000   1.0000   1.0000   1.0000   1.0000
     1.0000   1.0000   1.0000   1.0000   1.0000   1.0000   1.0000   1.0000
     1.0000   1.0000   1.0000   1.0000   1.0000   1.0000   1.0000   1.0000
     1.0000   1.0000   1.0000   1.0000   1.0000   1.0000   1.0000   1.0000
     1.0000   1.0000   1.0000   1.0000   1.0000   0.1598   0.0368   0.0021
     0.0000   0.0000   0.0000   0.0000   0.0000   0.0000   0.0000   0.0000
     0.0000   0.0000

          k = 0.0000 0.3849 0.1860 (  8922 PWs)   bands (ev):

   -54.5670 -54.5297 -54.5160 -28.5459 -28.5287 -28.5089 -28.4953 -28.4651
   -28.4404 -28.3478 -28.1957 -28.1009 -19.4587 -19.3900 -19.3895 -19.2899
   -19.2856 -19.1972 -19.1959 -19.1879 -19.1873 -19.1377 -19.1376 -19.1204
   -19.1201 -19.0648 -19.0598 -19.0581 -19.0546 -19.0395 -19.0390 -19.0341
   -19.0318 -19.0157 -19.0136 -18.9864 -18.9847 -12.9687  -1.1711  -0.5538
     0.1115   0.2268   0.2591   0.3508   1.2272   1.2551   5.1258   5.1449
     6.0336   6.1806   6.4987   7.0009   7.2098   7.2865   7.3793   7.9543
     8.5132   8.5314   8.8145   8.8500   9.0012  10.1066  10.1821  10.3407
    10.6239  10.7166  10.7933  10.8509  10.9491  11.5426  11.6209  11.9943
    12.2418  12.5420

     occupation numbers 
     1.0000   1.0000   1.0000   1.0000   1.0000   1.0000   1.0000   1.0000
     1.0000   1.0000   1.0000   1.0000   1.0000   1.0000   1.0000   1.0000
     1.0000   1.0000   1.0000   1.0000   1.0000   1.0000   1.0000   1.0000
     1.0000   1.0000   1.0000   1.0000   1.0000   1.0000   1.0000   1.0000
     1.0000   1.0000   1.0000   1.0000   1.0000   1.0000   1.0000   1.0000
     1.0000   1.0000   1.0000   1.0000   1.0000   1.0000   1.0000   1.0000
     1.0000   1.0000   1.0000   1.0000   1.0000   1.0000   1.0000   1.0000
     1.0000   1.0000   1.0000   1.0000   1.0000   0.0757   0.0339   0.0040
     0.0000   0.0000   0.0000   0.0000   0.0000   0.0000   0.0000   0.0000
     0.0000   0.0000

          k = 0.0000 0.3849-0.2790 (  8914 PWs)   bands (ev):

   -54.5670 -54.5297 -54.5160 -28.5459 -28.5287 -28.5089 -28.4953 -28.4651
   -28.4404 -28.3478 -28.1957 -28.1009 -19.4587 -19.3900 -19.3895 -19.2899
   -19.2856 -19.1972 -19.1959 -19.1879 -19.1873 -19.1377 -19.1376 -19.1204
   -19.1201 -19.0648 -19.0598 -19.0581 -19.0546 -19.0395 -19.0390 -19.0341
   -19.0318 -19.0157 -19.0136 -18.9864 -18.9847 -12.9687  -1.1714  -0.5591
     0.1567   0.2268   0.2773   0.2884   1.2300   1.2566   5.1196   5.1644
     6.0235   6.1933   6.5122   6.9416   7.2077   7.2625   7.3894   7.9900
     8.5380   8.5452   8.8130   8.8465   8.9759  10.1642  10.1861  10.3225
    10.5720  10.7189  10.7944  10.8207  10.9487  11.5298  11.6236  12.0126
    12.1053  12.5525

     occupation numbers 
     1.0000   1.0000   1.0000   1.0000   1.0000   1.0000   1.0000   1.0000
     1.0000   1.0000   1.0000   1.0000   1.0000   1.0000   1.0000   1.0000
     1.0000   1.0000   1.0000   1.0000   1.0000   1.0000   1.0000   1.0000
     1.0000   1.0000   1.0000   1.0000   1.0000   1.0000   1.0000   1.0000
     1.0000   1.0000   1.0000   1.0000   1.0000   1.0000   1.0000   1.0000
     1.0000   1.0000   1.0000   1.0000   1.0000   1.0000   1.0000   1.0000
     1.0000   1.0000   1.0000   1.0000   1.0000   1.0000   1.0000   1.0000
     1.0000   1.0000   1.0000   1.0000   1.0000   0.0415   0.0323   0.0053
     0.0001   0.0000   0.0000   0.0000   0.0000   0.0000   0.0000   0.0000
     0.0000   0.0000

          k = 0.0000 0.5132 0.0000 (  8916 PWs)   bands (ev):

   -54.5604 -54.5364 -54.5160 -28.5393 -28.5291 -28.5155 -28.4954 -28.4328
   -28.3826 -28.3772 -28.2551 -28.1047 -19.4578 -19.3899 -19.3893 -19.2890
   -19.2834 -19.2006 -19.1993 -19.1895 -19.1893 -19.1380 -19.1379 -19.1169
   -19.1166 -19.0652 -19.0602 -19.0558 -19.0532 -19.0414 -19.0409 -19.0337
   -19.0314 -19.0086 -19.0070 -18.9905 -18.9897 -12.9677  -0.7694  -0.2081
    -0.1941   0.1511   0.2195   0.3181   0.9249   0.9786   5.0058   5.0578
     5.9255   6.0194   6.7497   7.0106   7.1923   7.2482   7.3718   7.6883
     8.5847   8.6677   9.0742   9.2477   9.6693   9.8329   9.8509  10.1093
    10.6306  10.7972  10.8761  10.9954  11.0396  11.7183  12.1122  12.2839
    12.4855  12.5949

     occupation numbers 
     1.0000   1.0000   1.0000   1.0000   1.0000   1.0000   1.0000   1.0000
     1.0000   1.0000   1.0000   1.0000   1.0000   1.0000   1.0000   1.0000
     1.0000   1.0000   1.0000   1.0000   1.0000   1.0000   1.0000   1.0000
     1.0000   1.0000   1.0000   1.0000   1.0000   1.0000   1.0000   1.0000
     1.0000   1.0000   1.0000   1.0000   1.0000   1.0000   1.0000   1.0000
     1.0000   1.0000   1.0000   1.0000   1.0000   1.0000   1.0000   1.0000
     1.0000   1.0000   1.0000   1.0000   1.0000   1.0000   1.0000   1.0000
     1.0000   1.0000   1.0000   0.9988   0.7990   0.4953   0.4579   0.0737
     0.0000   0.0000   0.0000   0.0000   0.0000   0.0000   0.0000   0.0000
     0.0000   0.0000

          k = 0.0000 0.5132 0.0930 (  8901 PWs)   bands (ev):

   -54.5604 -54.5364 -54.5160 -28.5393 -28.5291 -28.5155 -28.4954 -28.4328
   -28.3826 -28.3772 -28.2551 -28.1047 -19.4578 -19.3899 -19.3893 -19.2890
   -19.2834 -19.2006 -19.1993 -19.1895 -19.1893 -19.1380 -19.1379 -19.1169
   -19.1166 -19.0652 -19.0602 -19.0558 -19.0532 -19.0414 -19.0409 -19.0337
   -19.0314 -19.0086 -19.0070 -18.9906 -18.9897 -12.9677  -0.7556  -0.2925
    -0.1367   0.1416   0.2196   0.3511   0.8939   1.0019   4.9977   5.0575
     5.9037   6.0359   6.7652   7.0277   7.1867   7.2362   7.3345   7.7356
     8.5921   8.6765   9.0744   9.2462   9.6281   9.8545   9.8741  10.0742
    10.6414  10.7970  10.8737  10.9613  11.0212  11.7217  11.7928  12.3049
    12.5345  12.6010

     occupation numbers 
     1.0000   1.0000   1.0000   1.0000   1.0000   1.0000   1.0000   1.0000
     1.0000   1.0000   1.0000   1.0000   1.0000   1.0000   1.0000   1.0000
     1.0000   1.0000   1.0000   1.0000   1.0000   1.0000   1.0000   1.0000
     1.0000   1.0000   1.0000   1.0000   1.0000   1.0000   1.0000   1.0000
     1.0000   1.0000   1.0000   1.0000   1.0000   1.0000   1.0000   1.0000
     1.0000   1.0000   1.0000   1.0000   1.0000   1.0000   1.0000   1.0000
     1.0000   1.0000   1.0000   1.0000   1.0000   1.0000   1.0000   1.0000
     1.0000   1.0000   1.0000   0.9988   0.8537   0.4506   0.4104   0.1028
     0.0000   0.0000   0.0000   0.0000   0.0000   0.0000   0.0000   0.0000
     0.0000   0.0000

          k = 0.0000 0.5132 0.1860 (  8927 PWs)   bands (ev):

   -54.5604 -54.5364 -54.5160 -28.5393 -28.5291 -28.5155 -28.4954 -28.4328
   -28.3826 -28.3772 -28.2551 -28.1047 -19.4578 -19.3899 -19.3893 -19.2890
   -19.2834 -19.2006 -19.1993 -19.1895 -19.1893 -19.1380 -19.1379 -19.1169
   -19.1166 -19.0652 -19.0602 -19.0558 -19.0532 -19.0414 -19.0409 -19.0337
   -19.0314 -19.0086 -19.0071 -18.9906 -18.9897 -12.9677  -0.7231  -0.3731
    -0.1341   0.1693   0.2197   0.3880   0.8553   1.0264   4.9820   5.0570
     5.8626   6.0688   6.7928   7.0696   7.1752   7.2146   7.2660   7.8171
     8.6035   8.6980   9.0749   9.2431   9.5502   9.8621   9.9658  10.0135
    10.6596  10.7966  10.8565  10.9085  10.9547  11.4442  11.7314  12.3528
    12.5132  12.6215

     occupation numbers 
     1.0000   1.0000   1.0000   1.0000   1.0000   1.0000   1.0000   1.0000
     1.0000   1.0000   1.0000   1.0000   1.0000   1.0000   1.0000   1.0000
     1.0000   1.0000   1.0000   1.0000   1.0000   1.0000   1.0000   1.0000
     1.0000   1.0000   1.0000   1.0000   1.0000   1.0000   1.0000   1.0000
     1.0000   1.0000   1.0000   1.0000   1.0000   1.0000   1.0000   1.0000
     1.0000   1.0000   1.0000   1.0000   1.0000   1.0000   1.0000   1.0000
     1.0000   1.0000   1.0000   1.0000   1.0000   1.0000   1.0000   1.0000
     1.0000   1.0000   1.0000   0.9989   0.9275   0.4349   0.2411   0.1709
     0.0000   0.0000   0.0000   0.0000   0.0000   0.0000   0.0000   0.0000
     0.0000   0.0000

          k = 0.0000 0.5132-0.2790 (  8934 PWs)   bands (ev):

   -54.5604 -54.5364 -54.5160 -28.5393 -28.5291 -28.5155 -28.4954 -28.4328
   -28.3826 -28.3772 -28.2551 -28.1047 -19.4578 -19.3899 -19.3893 -19.2890
   -19.2834 -19.2006 -19.1993 -19.1895 -19.1893 -19.1380 -19.1379 -19.1169
   -19.1166 -19.0652 -19.0602 -19.0558 -19.0532 -19.0414 -19.0409 -19.0337
   -19.0314 -19.0086 -19.0071 -18.9906 -18.9896 -12.9677  -0.7030  -0.4090
    -0.1453   0.1974   0.2198   0.3958   0.8404   1.0350   4.9744   5.0569
     5.8430   6.0853   6.8053   7.0982   7.1692   7.2117   7.2208   7.8547
     8.6080   8.7104   9.0752   9.2415   9.5118   9.8662   9.9693  10.0415
    10.6676  10.7965  10.8345  10.8894  10.8967  11.3298  11.7323  12.3795
    12.5089  12.6411

     occupation numbers 
     1.0000   1.0000   1.0000   1.0000   1.0000   1.0000   1.0000   1.0000
     1.0000   1.0000   1.0000   1.0000   1.0000   1.0000   1.0000   1.0000
     1.0000   1.0000   1.0000   1.0000   1.0000   1.0000   1.0000   1.0000
     1.0000   1.0000   1.0000   1.0000   1.0000   1.0000   1.0000   1.0000
     1.0000   1.0000   1.0000   1.0000   1.0000   1.0000   1.0000   1.0000
     1.0000   1.0000   1.0000   1.0000   1.0000   1.0000   1.0000   1.0000
     1.0000   1.0000   1.0000   1.0000   1.0000   1.0000   1.0000   1.0000
     1.0000   1.0000   1.0000   0.9989   0.9512   0.4266   0.2354   0.1365
     0.0000   0.0000   0.0000   0.0000   0.0000   0.0000   0.0000   0.0000
     0.0000   0.0000

          k = 0.1111 0.1925 0.0000 (  8881 PWs)   bands (ev):

   -54.5756 -54.5211 -54.5160 -28.5544 -28.5236 -28.5178 -28.5003 -28.4953
   -28.4944 -28.3175 -28.1256 -28.0939 -19.4605 -19.3901 -19.3899 -19.2916
   -19.2898 -19.1904 -19.1892 -19.1835 -19.1824 -19.1379 -19.1377 -19.1275
   -19.1274 -19.0640 -19.0612 -19.0590 -19.0568 -19.0372 -19.0356 -19.0349
   -19.0326 -19.0260 -19.0231 -18.9815 -18.9789 -12.9706  -1.5787  -0.8706
     0.1304   0.2366   0.3353   0.4165   1.7955   1.8861   5.1030   5.7198
     5.9746   6.2137   6.6951   7.0608   7.0795   7.3589   7.7141   7.8385
     8.0910   8.1436   8.3851   8.5201   8.5528  10.0700  10.4474  10.5035
    10.5882  10.7224  10.7535  10.7790  11.0613  11.2894  11.6210  11.6742
    11.7106  11.7163

     occupation numbers 
     1.0000   1.0000   1.0000   1.0000   1.0000   1.0000   1.0000   1.0000
     1.0000   1.0000   1.0000   1.0000   1.0000   1.0000   1.0000   1.0000
     1.0000   1.0000   1.0000   1.0000   1.0000   1.0000   1.0000   1.0000
     1.0000   1.0000   1.0000   1.0000   1.0000   1.0000   1.0000   1.0000
     1.0000   1.0000   1.0000   1.0000   1.0000   1.0000   1.0000   1.0000
     1.0000   1.0000   1.0000   1.0000   1.0000   1.0000   1.0000   1.0000
     1.0000   1.0000   1.0000   1.0000   1.0000   1.0000   1.0000   1.0000
     1.0000   1.0000   1.0000   1.0000   1.0000   0.1066   0.0007   0.0002
     0.0000   0.0000   0.0000   0.0000   0.0000   0.0000   0.0000   0.0000
     0.0000   0.0000

          k = 0.1111 0.1925 0.0930 (  8895 PWs)   bands (ev):

   -54.5756 -54.5211 -54.5160 -28.5544 -28.5236 -28.5178 -28.5003 -28.4953
   -28.4944 -28.3175 -28.1256 -28.0939 -19.4605 -19.3901 -19.3899 -19.2916
   -19.2898 -19.1904 -19.1892 -19.1835 -19.1824 -19.1379 -19.1377 -19.1275
   -19.1274 -19.0639 -19.0612 -19.0590 -19.0568 -19.0372 -19.0356 -19.0349
   -19.0326 -19.0260 -19.0231 -18.9815 -18.9789 -12.9706  -1.5863  -0.8504
     0.1216   0.2366   0.3031   0.4411   1.7918   1.8902   5.1395   5.7261
     5.9725   6.2160   6.6928   6.9659   7.0840   7.3635   7.6797   7.8038
     8.1180   8.2096   8.3855   8.5284   8.5704  10.0115  10.4657  10.5063
    10.5719  10.7278  10.7400  10.7847  11.0480  11.3437  11.6093  11.6238
    11.8070  11.8787

     occupation numbers 
     1.0000   1.0000   1.0000   1.0000   1.0000   1.0000   1.0000   1.0000
     1.0000   1.0000   1.0000   1.0000   1.0000   1.0000   1.0000   1.0000
     1.0000   1.0000   1.0000   1.0000   1.0000   1.0000   1.0000   1.0000
     1.0000   1.0000   1.0000   1.0000   1.0000   1.0000   1.0000   1.0000
     1.0000   1.0000   1.0000   1.0000   1.0000   1.0000   1.0000   1.0000
     1.0000   1.0000   1.0000   1.0000   1.0000   1.0000   1.0000   1.0000
     1.0000   1.0000   1.0000   1.0000   1.0000   1.0000   1.0000   1.0000
     1.0000   1.0000   1.0000   1.0000   1.0000   0.1735   0.0005   0.0002
     0.0001   0.0000   0.0000   0.0000   0.0000   0.0000   0.0000   0.0000
     0.0000   0.0000

          k = 0.1111 0.1925 0.1860 (  8890 PWs)   bands (ev):

   -54.5756 -54.5211 -54.5160 -28.5544 -28.5236 -28.5178 -28.5003 -28.4953
   -28.4944 -28.3175 -28.1256 -28.0939 -19.4605 -19.3901 -19.3899 -19.2916
   -19.2898 -19.1904 -19.1892 -19.1835 -19.1824 -19.1379 -19.1377 -19.1275
   -19.1274 -19.0639 -19.0612 -19.0590 -19.0568 -19.0372 -19.0356 -19.0349
   -19.0326 -19.0259 -19.0231 -18.9815 -18.9788 -12.9706  -1.6006  -0.8089
     0.0975   0.2368   0.2658   0.4682   1.7850   1.8974   5.2166   5.7470
     5.9684   6.2204   6.6877   6.7788   7.0884   7.3729   7.6337   7.7566
     8.1465   8.3022   8.3934   8.5217   8.6341   9.9291  10.4683  10.5060
    10.5389  10.7229  10.7368  10.7909  11.0223  11.4533  11.6497  11.6717
    11.9790  12.0316

     occupation numbers 
     1.0000   1.0000   1.0000   1.0000   1.0000   1.0000   1.0000   1.0000
     1.0000   1.0000   1.0000   1.0000   1.0000   1.0000   1.0000   1.0000
     1.0000   1.0000   1.0000   1.0000   1.0000   1.0000   1.0000   1.0000
     1.0000   1.0000   1.0000   1.0000   1.0000   1.0000   1.0000   1.0000
     1.0000   1.0000   1.0000   1.0000   1.0000   1.0000   1.0000   1.0000
     1.0000   1.0000   1.0000   1.0000   1.0000   1.0000   1.0000   1.0000
     1.0000   1.0000   1.0000   1.0000   1.0000   1.0000   1.0000   1.0000
     1.0000   1.0000   1.0000   1.0000   1.0000   0.3043   0.0005   0.0002
     0.0001   0.0000   0.0000   0.0000   0.0000   0.0000   0.0000   0.0000
     0.0000   0.0000

          k = 0.1111 0.1925-0.2790 (  8900 PWs)   bands (ev):

   -54.5756 -54.5211 -54.5160 -28.5544 -28.5236 -28.5178 -28.5003 -28.4953
   -28.4944 -28.3175 -28.1256 -28.0939 -19.4605 -19.3901 -19.3899 -19.2916
   -19.2898 -19.1904 -19.1892 -19.1835 -19.1824 -19.1379 -19.1377 -19.1275
   -19.1274 -19.0639 -19.0612 -19.0590 -19.0568 -19.0372 -19.0356 -19.0349
   -19.0326 -19.0259 -19.0232 -18.9816 -18.9788 -12.9706  -1.6074  -0.7875
     0.0820   0.2368   0.2538   0.4776   1.7820   1.9007   5.2571   5.7645
     5.9664   6.2224   6.6807   6.6847   7.0906   7.3777   7.6158   7.7393
     8.1537   8.3302   8.4065   8.5166   8.6696   9.8979  10.4624  10.5013
    10.5221  10.7159  10.7406  10.7951  11.0106  11.5182  11.7038  11.7080
    12.0450  12.0846

     occupation numbers 
     1.0000   1.0000   1.0000   1.0000   1.0000   1.0000   1.0000   1.0000
     1.0000   1.0000   1.0000   1.0000   1.0000   1.0000   1.0000   1.0000
     1.0000   1.0000   1.0000   1.0000   1.0000   1.0000   1.0000   1.0000
     1.0000   1.0000   1.0000   1.0000   1.0000   1.0000   1.0000   1.0000
     1.0000   1.0000   1.0000   1.0000   1.0000   1.0000   1.0000   1.0000
     1.0000   1.0000   1.0000   1.0000   1.0000   1.0000   1.0000   1.0000
     1.0000   1.0000   1.0000   1.0000   1.0000   1.0000   1.0000   1.0000
     1.0000   1.0000   1.0000   1.0000   1.0000   0.3632   0.0005   0.0002
     0.0002   0.0000   0.0000   0.0000   0.0000   0.0000   0.0000   0.0000
     0.0000   0.0000

          k = 0.1111 0.3208 0.0000 (  8907 PWs)   bands (ev):

   -54.5696 -54.5271 -54.5160 -28.5484 -28.5200 -28.5063 -28.4953 -28.4936
   -28.4523 -28.3386 -28.1713 -28.1013 -19.4592 -19.3900 -19.3896 -19.2901
   -19.2869 -19.1975 -19.1964 -19.1838 -19.1830 -19.1405 -19.1403 -19.1203
   -19.1202 -19.0647 -19.0597 -19.0588 -19.0549 -19.0390 -19.0382 -19.0341
   -19.0319 -19.0187 -19.0163 -18.9848 -18.9829 -12.9692  -1.3011  -0.6423
     0.0713   0.2159   0.3078   0.4490   1.3579   1.3959   4.9322   5.6050
     5.8001   6.1670   6.6414   7.0219   7.2166   7.4722   7.5408   8.0006
     8.2040   8.3388   8.4877   8.6499   9.1216  10.1558  10.2000  10.5287
    10.5656  10.5981  10.7741  10.8397  11.1055  11.3997  11.9433  11.9728
    11.9966  12.0945

     occupation numbers 
     1.0000   1.0000   1.0000   1.0000   1.0000   1.0000   1.0000   1.0000
     1.0000   1.0000   1.0000   1.0000   1.0000   1.0000   1.0000   1.0000
     1.0000   1.0000   1.0000   1.0000   1.0000   1.0000   1.0000   1.0000
     1.0000   1.0000   1.0000   1.0000   1.0000   1.0000   1.0000   1.0000
     1.0000   1.0000   1.0000   1.0000   1.0000   1.0000   1.0000   1.0000
     1.0000   1.0000   1.0000   1.0000   1.0000   1.0000   1.0000   1.0000
     1.0000   1.0000   1.0000   1.0000   1.0000   1.0000   1.0000   1.0000
     1.0000   1.0000   1.0000   1.0000   0.9999   0.0455   0.0274   0.0001
     0.0001   0.0000   0.0000   0.0000   0.0000   0.0000   0.0000   0.0000
     0.0000   0.0000

          k = 0.1111 0.3208 0.0930 (  8903 PWs)   bands (ev):

   -54.5696 -54.5271 -54.5160 -28.5484 -28.5200 -28.5063 -28.4953 -28.4936
   -28.4523 -28.3386 -28.1713 -28.1013 -19.4592 -19.3900 -19.3896 -19.2901
   -19.2869 -19.1975 -19.1964 -19.1838 -19.1830 -19.1405 -19.1403 -19.1203
   -19.1202 -19.0647 -19.0597 -19.0588 -19.0550 -19.0390 -19.0382 -19.0341
   -19.0319 -19.0187 -19.0163 -18.9848 -18.9829 -12.9692  -1.3043  -0.6374
     0.0858   0.2160   0.3012   0.4363   1.3588   1.3953   4.9564   5.6030
     5.7992   6.1700   6.6456   7.0074   7.1524   7.4740   7.5262   8.0238
     8.1954   8.3776   8.5013   8.6540   9.1129  10.1766  10.1982  10.5024
    10.5750  10.5901  10.7603  10.8437  11.0905  11.4338  11.8400  11.9137
    12.1687  12.1867

     occupation numbers 
     1.0000   1.0000   1.0000   1.0000   1.0000   1.0000   1.0000   1.0000
     1.0000   1.0000   1.0000   1.0000   1.0000   1.0000   1.0000   1.0000
     1.0000   1.0000   1.0000   1.0000   1.0000   1.0000   1.0000   1.0000
     1.0000   1.0000   1.0000   1.0000   1.0000   1.0000   1.0000   1.0000
     1.0000   1.0000   1.0000   1.0000   1.0000   1.0000   1.0000   1.0000
     1.0000   1.0000   1.0000   1.0000   1.0000   1.0000   1.0000   1.0000
     1.0000   1.0000   1.0000   1.0000   1.0000   1.0000   1.0000   1.0000
     1.0000   1.0000   1.0000   1.0000   0.9999   0.0360   0.0280   0.0002
     0.0001   0.0000   0.0000   0.0000   0.0000   0.0000   0.0000   0.0000
     0.0000   0.0000

          k = 0.1111 0.3208 0.1860 (  8903 PWs)   bands (ev):

   -54.5696 -54.5271 -54.5160 -28.5484 -28.5200 -28.5063 -28.4953 -28.4936
   -28.4523 -28.3386 -28.1713 -28.1013 -19.4592 -19.3900 -19.3896 -19.2901
   -19.2869 -19.1975 -19.1964 -19.1838 -19.1830 -19.1405 -19.1403 -19.1203
   -19.1202 -19.0647 -19.0598 -19.0588 -19.0550 -19.0391 -19.0382 -19.0341
   -19.0319 -19.0187 -19.0164 -18.9848 -18.9829 -12.9692  -1.3106  -0.6276
     0.1195   0.2159   0.2868   0.4078   1.3607   1.3942   5.0071   5.6037
     5.7926   6.1768   6.6530   6.9336   7.0847   7.4589   7.5133   8.0746
     8.1704   8.4410   8.5305   8.6639   9.0942  10.1872  10.2396  10.4565
    10.5593  10.5788  10.7452  10.8502  11.0635  11.5160  11.7434  11.9047
    12.1291  12.4698

     occupation numbers 
     1.0000   1.0000   1.0000   1.0000   1.0000   1.0000   1.0000   1.0000
     1.0000   1.0000   1.0000   1.0000   1.0000   1.0000   1.0000   1.0000
     1.0000   1.0000   1.0000   1.0000   1.0000   1.0000   1.0000   1.0000
     1.0000   1.0000   1.0000   1.0000   1.0000   1.0000   1.0000   1.0000
     1.0000   1.0000   1.0000   1.0000   1.0000   1.0000   1.0000   1.0000
     1.0000   1.0000   1.0000   1.0000   1.0000   1.0000   1.0000   1.0000
     1.0000   1.0000   1.0000   1.0000   1.0000   1.0000   1.0000   1.0000
     1.0000   1.0000   1.0000   1.0000   0.9999   0.0319   0.0168   0.0006
     0.0001   0.0001   0.0000   0.0000   0.0000   0.0000   0.0000   0.0000
     0.0000   0.0000

          k = 0.1111 0.3208-0.2790 (  8908 PWs)   bands (ev):

   -54.5696 -54.5271 -54.5160 -28.5484 -28.5200 -28.5063 -28.4953 -28.4936
   -28.4523 -28.3386 -28.1713 -28.1013 -19.4592 -19.3900 -19.3896 -19.2901
   -19.2869 -19.1975 -19.1964 -19.1838 -19.1830 -19.1405 -19.1403 -19.1203
   -19.1202 -19.0647 -19.0598 -19.0588 -19.0550 -19.0391 -19.0382 -19.0341
   -19.0319 -19.0187 -19.0164 -18.9849 -18.9828 -12.9692  -1.3136  -0.6228
     0.1402   0.2155   0.2782   0.3915   1.3617   1.3936   5.0336   5.6075
     5.7860   6.1809   6.6562   6.8781   7.0733   7.4488   7.5101   8.1204
     8.1357   8.4676   8.5460   8.6699   9.0840  10.1845  10.2853  10.4205
    10.5450  10.5709  10.7411  10.8534  11.0528  11.5830  11.7012  11.9303
    12.0055  12.4765

     occupation numbers 
     1.0000   1.0000   1.0000   1.0000   1.0000   1.0000   1.0000   1.0000
[...]

   -49.9465 -49.9173 -49.8817 -23.9935 -23.9680 -23.9398 -23.9058 -23.8564
   -23.7999 -23.7817 -23.6749 -23.4504 -15.0939 -15.0228 -15.0214 -14.9399
   -14.9308 -14.8949 -14.8940 -14.8682 -14.8668 -14.8134 -14.8095 -14.7629
   -14.7613 -14.7520 -14.7517 -14.7395 -14.7355 -14.7238 -14.7184 -14.7102
   -14.7003 -14.6939 -14.6810 -14.6730 -14.6543  -8.2149   2.7553   3.4671
     3.5650   4.0036   4.8870   5.0064   5.2399   5.6448   9.0886   9.2391
     9.4683  10.5081  10.7639  10.9385  11.0941  11.3383  11.8961  12.9148
    12.9719  13.2278  13.3322  13.4257  13.5609  14.1962  14.4444  14.6421
    15.3510  15.3815  15.3938  15.5405  15.7228  16.1049  16.2139  16.5799
    17.5701  17.5869

     occupation numbers 
     1.0000   1.0000   1.0000   1.0000   1.0000   1.0000   1.0000   1.0000
     1.0000   1.0000   1.0000   1.0000   1.0000   1.0000   1.0000   1.0000
     1.0000   1.0000   1.0000   1.0000   1.0000   1.0000   1.0000   1.0000
     1.0000   1.0000   1.0000   1.0000   1.0000   1.0000   1.0000   1.0000
     1.0000   1.0000   1.0000   1.0000   1.0000   1.0000   1.0000   1.0000
     1.0000   1.0000   1.0000   1.0000   1.0000   1.0000   1.0000   1.0000
     1.0000   1.0000   1.0000   1.0000   1.0000   1.0000   1.0000   1.0000
     1.0000   1.0000   1.0000   1.0000   1.0000   0.7843   0.3075   0.0629
     0.0000   0.0000   0.0000   0.0000   0.0000   0.0000   0.0000   0.0000
     0.0000   0.0000

          k = 0.4607-0.2660 0.0000 (  6604 PWs)   bands (ev):

   -49.9504 -49.9134 -49.8817 -24.0071 -23.9717 -23.9360 -23.9058 -23.8491
   -23.8251 -23.7723 -23.6600 -23.4416 -15.0944 -15.0230 -15.0214 -14.9412
   -14.9309 -14.8894 -14.8857 -14.8768 -14.8745 -14.8055 -14.8026 -14.7676
   -14.7674 -14.7599 -14.7461 -14.7423 -14.7329 -14.7241 -14.7150 -14.7070
   -14.7047 -14.6982 -14.6769 -14.6741 -14.6538  -8.2164   2.4612   3.6703
     3.7893   4.3725   4.5232   4.8712   5.3296   5.5468   9.0610   9.1295
     9.9115  10.2029  10.4582  10.9436  11.3794  11.6288  12.0507  12.2046
    12.6788  12.9330  13.4004  13.5754  14.2840  14.3025  14.6745  15.1224
    15.2239  15.4285  15.4595  15.4967  15.7136  16.0390  16.2162  17.3675
    17.4401  17.6661

     occupation numbers 
     1.0000   1.0000   1.0000   1.0000   1.0000   1.0000   1.0000   1.0000
     1.0000   1.0000   1.0000   1.0000   1.0000   1.0000   1.0000   1.0000
     1.0000   1.0000   1.0000   1.0000   1.0000   1.0000   1.0000   1.0000
     1.0000   1.0000   1.0000   1.0000   1.0000   1.0000   1.0000   1.0000
     1.0000   1.0000   1.0000   1.0000   1.0000   1.0000   1.0000   1.0000
     1.0000   1.0000   1.0000   1.0000   1.0000   1.0000   1.0000   1.0000
     1.0000   1.0000   1.0000   1.0000   1.0000   1.0000   1.0000   1.0000
     1.0000   1.0000   1.0000   1.0000   0.6294   0.5925   0.0446   0.0000
     0.0000   0.0000   0.0000   0.0000   0.0000   0.0000   0.0000   0.0000
     0.0000   0.0000

          k = 0.4607-0.2660 0.1166 (  6612 PWs)   bands (ev):

   -49.9504 -49.9134 -49.8817 -24.0071 -23.9717 -23.9360 -23.9058 -23.8491
   -23.8251 -23.7723 -23.6600 -23.4416 -15.0944 -15.0230 -15.0214 -14.9412
   -14.9309 -14.8892 -14.8859 -14.8767 -14.8745 -14.8057 -14.8025 -14.7679
   -14.7671 -14.7587 -14.7453 -14.7434 -14.7337 -14.7236 -14.7154 -14.7086
   -14.7031 -14.6978 -14.6774 -14.6746 -14.6533  -8.2164   2.5036   3.4805
     3.8940   4.3544   4.5257   4.8787   5.4241   5.5321   9.0498   9.1397
    10.0117  10.0564  10.4598  10.9306  11.3808  11.7017  11.9298  12.2347
    12.8487  12.9698  13.4035  13.5472  14.2820  14.3533  14.4302  14.8593
    15.3199  15.4192  15.4744  15.5055  15.5994  16.1144  16.3118  17.1533
    17.3524  17.6070

     occupation numbers 
     1.0000   1.0000   1.0000   1.0000   1.0000   1.0000   1.0000   1.0000
     1.0000   1.0000   1.0000   1.0000   1.0000   1.0000   1.0000   1.0000
     1.0000   1.0000   1.0000   1.0000   1.0000   1.0000   1.0000   1.0000
     1.0000   1.0000   1.0000   1.0000   1.0000   1.0000   1.0000   1.0000
     1.0000   1.0000   1.0000   1.0000   1.0000   1.0000   1.0000   1.0000
     1.0000   1.0000   1.0000   1.0000   1.0000   1.0000   1.0000   1.0000
     1.0000   1.0000   1.0000   1.0000   1.0000   1.0000   1.0000   1.0000
     1.0000   1.0000   1.0000   1.0000   0.6333   0.4882   0.3338   0.0039
     0.0000   0.0000   0.0000   0.0000   0.0000   0.0000   0.0000   0.0000
     0.0000   0.0000

          k = 0.4607-0.2660 0.2331 (  6612 PWs)   bands (ev):

   -49.9504 -49.9134 -49.8817 -24.0071 -23.9717 -23.9360 -23.9058 -23.8491
   -23.8251 -23.7723 -23.6600 -23.4416 -15.0944 -15.0230 -15.0214 -14.9412
   -14.9309 -14.8887 -14.8863 -14.8766 -14.8747 -14.8061 -14.8022 -14.7682
   -14.7669 -14.7555 -14.7467 -14.7432 -14.7358 -14.7226 -14.7162 -14.7103
   -14.7014 -14.6970 -14.6784 -14.6756 -14.6522  -8.2164   2.6133   3.2552
     3.8464   4.4423   4.5309   4.8824   5.5052   5.5763   8.9257   9.3288
     9.8174  10.1786  10.4446  10.9143  11.3828  11.4848  11.8884  12.6062
    12.9232  13.2014  13.4144  13.4883  13.9157  14.2430  14.3842  14.6352
    15.3911  15.4132  15.4394  15.4578  15.5300  16.3497  16.4135  16.5222
    17.2731  17.3413

     occupation numbers 
     1.0000   1.0000   1.0000   1.0000   1.0000   1.0000   1.0000   1.0000
     1.0000   1.0000   1.0000   1.0000   1.0000   1.0000   1.0000   1.0000
     1.0000   1.0000   1.0000   1.0000   1.0000   1.0000   1.0000   1.0000
     1.0000   1.0000   1.0000   1.0000   1.0000   1.0000   1.0000   1.0000
     1.0000   1.0000   1.0000   1.0000   1.0000   1.0000   1.0000   1.0000
     1.0000   1.0000   1.0000   1.0000   1.0000   1.0000   1.0000   1.0000
     1.0000   1.0000   1.0000   1.0000   1.0000   1.0000   1.0000   1.0000
     1.0000   1.0000   1.0000   1.0000   0.9876   0.7065   0.4244   0.0675
     0.0000   0.0000   0.0000   0.0000   0.0000   0.0000   0.0000   0.0000
     0.0000   0.0000

          k = 0.4607-0.2660-0.3497 (  6622 PWs)   bands (ev):

   -49.9504 -49.9134 -49.8817 -24.0071 -23.9717 -23.9360 -23.9058 -23.8491
   -23.8251 -23.7723 -23.6600 -23.4416 -15.0944 -15.0230 -15.0214 -14.9412
   -14.9309 -14.8884 -14.8867 -14.8765 -14.8748 -14.8063 -14.8021 -14.7683
   -14.7668 -14.7511 -14.7511 -14.7415 -14.7375 -14.7221 -14.7165 -14.7109
   -14.7007 -14.6966 -14.6789 -14.6761 -14.6517  -8.2164   2.6955   3.1353
     3.7943   4.5144   4.5334   4.8742   5.4955   5.6391   8.8740   9.4501
     9.7071  10.2528  10.4339  10.9337  11.2548  11.3833  11.9609  12.8485
    12.9891  13.3915  13.4386  13.4411  13.5438  14.1471  14.2244  14.8354
    15.3394  15.4119  15.4319  15.4436  15.5362  16.0221  16.5711  16.6745
    17.0826  17.1629

     occupation numbers 
     1.0000   1.0000   1.0000   1.0000   1.0000   1.0000   1.0000   1.0000
     1.0000   1.0000   1.0000   1.0000   1.0000   1.0000   1.0000   1.0000
     1.0000   1.0000   1.0000   1.0000   1.0000   1.0000   1.0000   1.0000
     1.0000   1.0000   1.0000   1.0000   1.0000   1.0000   1.0000   1.0000
     1.0000   1.0000   1.0000   1.0000   1.0000   1.0000   1.0000   1.0000
     1.0000   1.0000   1.0000   1.0000   1.0000   1.0000   1.0000   1.0000
     1.0000   1.0000   1.0000   1.0000   1.0000   1.0000   1.0000   1.0000
     1.0000   1.0000   1.0000   1.0000   1.0000   0.8512   0.7389   0.0056
     0.0000   0.0000   0.0000   0.0000   0.0000   0.0000   0.0000   0.0000
     0.0000   0.0000

     the Fermi energy is    14.3476 ev

!    total energy              =   -3437.06108849 Ry

     total all-electron energy =     -3437.061088 Ry
     estimated scf accuracy    <          1.3E-14 Ry
     smearing contrib. (-TS)   =      -0.01298574 Ry
     internal energy E=F+TS    =   -3437.04810275 Ry

     The total energy is F=E-TS. E is the sum of the following terms:
     one-electron contribution =    -685.16906875 Ry
     hartree contribution      =     418.99789826 Ry
     xc contribution           =    -173.38137239 Ry
     ewald contribution        =    -822.75216643 Ry
     one-center paw contrib.   =   -2174.74339344 Ry
      -> PAW hartree energy AE =      16.83981211 Ry
      -> PAW hartree energy PS =     -16.72214848 Ry
      -> PAW xc energy AE      =    -382.48214058 Ry
      -> PAW xc energy PS      =      22.19400448 Ry
      -> total E_H with PAW    =     419.11556189 Ry
      -> total E_XC with PAW   =    -533.66950849 Ry

     convergence has been achieved in  20 iterations

     Forces acting on atoms (cartesian axes, Ry/au):

     atom    1 type  1   force =     0.00000000    0.00000000    0.00000000
     atom    2 type  2   force =     0.00000000    0.00000000    0.00000000
     atom    3 type  2   force =     0.00000000    0.00000000    0.00000000
     atom    4 type  2   force =     0.00000000    0.00000000    0.00000000
     atom    5 type  3   force =     0.00000000    0.00000000    0.00000000
     atom    6 type  3   force =    -0.00000029    0.00000017    0.00001170
     atom    7 type  3   force =     0.00000029   -0.00000017   -0.00001170
     atom    8 type  3   force =     0.00000029   -0.00000017    0.00001170
     atom    9 type  3   force =    -0.00000029    0.00000017   -0.00001170
     The non-local contrib.  to forces
     atom    1 type  1   force =     0.00000000    0.00000000    0.00000000
     atom    2 type  2   force =     0.00000000    0.00000000    0.00000000
     atom    3 type  2   force =     0.00000000    0.00000000    0.00000000
     atom    4 type  2   force =     0.00000000    0.00000000    0.00000000
     atom    5 type  3   force =     0.00000000    0.00000000    0.00000000
     atom    6 type  3   force =     0.00000033   -0.00000019   -0.25754627
     atom    7 type  3   force =    -0.00000033    0.00000019    0.25754627
     atom    8 type  3   force =    -0.00000033    0.00000019   -0.25754627
     atom    9 type  3   force =     0.00000033   -0.00000019    0.25754627
     The ionic contribution  to forces
     atom    1 type  1   force =    -0.00000000   -0.00000000   -0.00000000
     atom    2 type  2   force =     0.00000000    0.00000000    0.00000000
     atom    3 type  2   force =     0.00000000    0.00000000    0.00000000
     atom    4 type  2   force =    -0.00000000   -0.00000000    0.00000000
     atom    5 type  3   force =    -0.00000001   -0.00000000    0.00000000
     atom    6 type  3   force =    -0.00000898    0.00000451   34.89015335
     atom    7 type  3   force =     0.00000899   -0.00000450  -34.89015335
     atom    8 type  3   force =     0.00000899   -0.00000450   34.89015335
     atom    9 type  3   force =    -0.00000898    0.00000451  -34.89015335
     The local contribution  to forces
     atom    1 type  1   force =    -0.00000000    0.00000000   -0.00000000
     atom    2 type  2   force =     0.00000005    0.00000000    0.00000002
     atom    3 type  2   force =     0.00000002    0.00000000    0.00000002
     atom    4 type  2   force =     0.00000003   -0.00000000    0.00000002
     atom    5 type  3   force =    -0.00000000   -0.00000000    0.00000002
     atom    6 type  3   force =     0.00000841   -0.00000421  -34.63459787
     atom    7 type  3   force =    -0.00000830    0.00000423   34.63459790
     atom    8 type  3   force =    -0.00000830    0.00000423  -34.63459787
     atom    9 type  3   force =     0.00000841   -0.00000421   34.63459790
     The core correction contribution to forces
     atom    1 type  1   force =    -0.00000000   -0.00000000   -0.00000000
     atom    2 type  2   force =     0.00000000    0.00000000    0.00000000
     atom    3 type  2   force =     0.00000000   -0.00000000    0.00000000
     atom    4 type  2   force =     0.00000000   -0.00000000    0.00000000
     atom    5 type  3   force =    -0.00000000    0.00000000    0.00000000
     atom    6 type  3   force =    -0.00000000    0.00000000    0.00200212
     atom    7 type  3   force =     0.00000000   -0.00000000   -0.00200212
     atom    8 type  3   force =     0.00000000   -0.00000000    0.00200212
     atom    9 type  3   force =    -0.00000000    0.00000000   -0.00200212
     The Hubbard contrib.    to forces
     atom    1 type  1   force =     0.00000000    0.00000000    0.00000000
     atom    2 type  2   force =     0.00000000    0.00000000    0.00000000
     atom    3 type  2   force =     0.00000000    0.00000000    0.00000000
     atom    4 type  2   force =     0.00000000    0.00000000    0.00000000
     atom    5 type  3   force =     0.00000000    0.00000000    0.00000000
     atom    6 type  3   force =     0.00000000    0.00000000    0.00000000
     atom    7 type  3   force =     0.00000000    0.00000000    0.00000000
     atom    8 type  3   force =     0.00000000    0.00000000    0.00000000
     atom    9 type  3   force =     0.00000000    0.00000000    0.00000000
     The SCF correction term to forces
     atom    1 type  1   force =    -0.00000000   -0.00000000    0.00000000
     atom    2 type  2   force =     0.00000000   -0.00000000   -0.00000000
     atom    3 type  2   force =    -0.00000000   -0.00000000    0.00000000
     atom    4 type  2   force =     0.00000000    0.00000000   -0.00000000
     atom    5 type  3   force =     0.00000000    0.00000000   -0.00000000
     atom    6 type  3   force =    -0.00000002    0.00000001    0.00000038
     atom    7 type  3   force =     0.00000002   -0.00000001   -0.00000038
     atom    8 type  3   force =     0.00000002   -0.00000001    0.00000038
     atom    9 type  3   force =    -0.00000002    0.00000001   -0.00000038

     Total force =     0.000023     Total SCF correction =     0.000001


     Computing stress (Cartesian axis) and pressure

          total   stress  (Ry/bohr**3)                   (kbar)     P=      150.43
   0.00102499  -0.00000000   0.00000000          150.78       -0.00        0.00
  -0.00000000   0.00102499   0.00000000           -0.00      150.78        0.00
   0.00000000   0.00000000   0.00101778            0.00        0.00      149.72

     kinetic stress (kbar)   8574.75     -0.00      0.00
                               -0.00   8574.75      0.00
                                0.00      0.00   8543.69

     local   stress (kbar) -15803.83     -0.01      0.00
                               -0.01 -15803.84      0.00
                                0.00      0.00  33823.10

     nonloc. stress (kbar)  11619.05      0.00      0.00
                                0.00  11619.05      0.00
                                0.00      0.00  11661.90

     hartree stress (kbar)  23676.76      0.00     -0.00
                                0.00  23676.76     -0.00
                               -0.00     -0.00    154.05

     exc-cor stress (kbar)  -2827.53     -0.00      0.00
                               -0.00  -2827.53     -0.00
                                0.00     -0.00  -2830.67

     corecor stress (kbar)  -2696.97      0.00      0.00
                                0.00  -2696.97     -0.00
                                0.00     -0.00  -2698.47

     ewald   stress (kbar) -22391.45      0.01      0.00
                                0.01 -22391.44      0.00
                                0.00      0.00 -48503.88

     hubbard stress (kbar)      0.00      0.00      0.00
                                0.00      0.00      0.00
                                0.00      0.00      0.00

     DFT-D   stress (kbar)      0.00      0.00      0.00
                                0.00      0.00      0.00
                                0.00      0.00      0.00

     XDM     stress (kbar)      0.00      0.00      0.00
                                0.00      0.00      0.00
                                0.00      0.00      0.00

     dft-nl  stress (kbar)      0.00      0.00      0.00
                                0.00      0.00      0.00
                                0.00      0.00      0.00

     TS-vdW  stress (kbar)      0.00      0.00      0.00
                                0.00      0.00      0.00
                                0.00      0.00      0.00


                                0.00      0.00      0.00
                                0.00      0.00      0.00


                                0.00      0.00      0.00


     Writing all to output data dir ./CsV3Sb5.save/
 
     init_run     :     26.42s CPU     26.88s WALL (       2 calls)
     electrons    :   4933.87s CPU   5019.49s WALL (      15 calls)
     update_pot   :     90.87s CPU     91.24s WALL (      13 calls)
     forces       :     87.38s CPU     87.72s WALL (      15 calls)
     stress       :    172.96s CPU    173.24s WALL (      15 calls)

     Called by init_run:
     wfcinit      :     14.55s CPU     14.84s WALL (       2 calls)
     wfcinit:atom :      0.15s CPU      0.15s WALL (     100 calls)
     wfcinit:wfcr :     13.76s CPU     14.05s WALL (     100 calls)
     potinit      :      3.52s CPU      3.54s WALL (       2 calls)
     hinit0       :      7.87s CPU      7.97s WALL (       2 calls)

     Called by electrons:
     c_bands      :   4355.11s CPU   4421.67s WALL (     329 calls)
     sum_band     :    452.09s CPU    464.72s WALL (     329 calls)
     v_of_rho     :     11.39s CPU     11.49s WALL (     344 calls)
     v_h          :      0.70s CPU      0.70s WALL (     344 calls)
     v_xc         :     11.62s CPU     11.73s WALL (     374 calls)
     newd         :     35.28s CPU     35.36s WALL (     344 calls)
     PAW_pot      :     85.09s CPU     86.75s WALL (     357 calls)
     mix_rho      :      1.97s CPU      2.00s WALL (     329 calls)

     Called by c_bands:
     init_us_2    :     45.96s CPU     46.40s WALL (   35150 calls)
     init_us_2:cp :     45.73s CPU     46.27s WALL (   35150 calls)
     cegterg      :   3972.22s CPU   4031.66s WALL (   16451 calls)

     Called by sum_band:
     sum_band:wei :      2.90s CPU      2.91s WALL (     329 calls)
     sum_band:loo :    407.64s CPU    420.01s WALL (     329 calls)
     sum_band:buf :     10.56s CPU     10.74s WALL (   16450 calls)
     sum_band:ini :     20.88s CPU     21.02s WALL (   16450 calls)
     sum_band:cal :     95.41s CPU     95.92s WALL (   17100 calls)
     sum_band:bec :      2.75s CPU      2.78s WALL (   17100 calls)
     addusdens    :     39.67s CPU     39.78s WALL (     329 calls)
     addusd:skk   :      0.21s CPU      0.22s WALL (     987 calls)
     addusd:dgemm :     13.01s CPU     13.05s WALL (     987 calls)
     addusd:qvan2 :     25.00s CPU     25.05s WALL (     987 calls)

     Called by *egterg:
     cdiaghg      :    663.01s CPU    664.03s WALL (   89416 calls)
     cegterg:over :    290.52s CPU    292.11s WALL (   73615 calls)
     cegterg:upda :    174.55s CPU    175.08s WALL (   73615 calls)
     cegterg:last :    404.88s CPU    405.35s WALL (   39114 calls)
     h_psi        :   2023.72s CPU   2078.85s WALL (   90166 calls)
     s_psi        :    269.30s CPU    270.00s WALL (   90166 calls)
     g_psi        :     14.37s CPU     14.44s WALL (   73615 calls)

     Called by h_psi:
     h_psi:calbec :    293.66s CPU    295.96s WALL (   90166 calls)
     vloc_psi     :   1453.34s CPU   1505.41s WALL (   90166 calls)
     add_vuspsi   :    259.88s CPU    260.68s WALL (   90166 calls)

     General routines
     calbec       :    410.55s CPU    413.72s WALL (  111016 calls)
     fft          :      4.92s CPU      5.29s WALL (    4830 calls)
     ffts         :      0.25s CPU      0.26s WALL (     673 calls)
     fftw         :   1558.90s CPU   1615.73s WALL ( 7958106 calls)
     interpolate  :      0.59s CPU      0.61s WALL (     344 calls)
 
     Parallel routines

     PAW routines
     PAW_pot      :     85.09s CPU     86.75s WALL (     357 calls)
     PAW_symme    :      0.25s CPU      0.26s WALL (     686 calls)
 
     PWSCF        :      1h28m CPU      1h30m WALL

 
   This run was terminated on:   9:39: 8  12Jun2023            

=------------------------------------------------------------------------------=
   JOB DONE.
=------------------------------------------------------------------------------=
